Program Version,EnergyPlus, Version 25.2.0-cf7368216c, YMD=2026.04.15 18:11
1,5,Environment Title[],Latitude[deg],Longitude[deg],Time Zone[],Elevation[m]
2,8,Day of Simulation[],Month[],Day of Month[],DST Indicator[1=yes 0=no],Hour[],StartMinute[],EndMinute[],DayType
3,5,Cumulative Day of Simulation[],Month[],Day of Month[],DST Indicator[1=yes 0=no],DayType  ! When Daily Report Variables Requested
4,2,Cumulative Days of Simulation[],Month[]  ! When Monthly Report Variables Requested
5,1,Cumulative Days of Simulation[] ! When Run Period Report Variables Requested
6,1,Calendar Year of Simulation[] ! When Annual Report Variables Requested
7,1,Environment,Site Outdoor Air Drybulb Temperature [C] !Hourly
8,1,Environment,Site Wind Speed [m/s] !Hourly
204,1,MAINZONE,Zone Mean Air Temperature [C] !Hourly
205,1,MAINZONE,Zone Air System Sensible Heating Energy [J] !Hourly
290,1,MAINZONE,Zone Air System Sensible Cooling Energy [J] !Hourly
339,1,MAINZONE,Zone Air CO2 Concentration [ppm] !Hourly
340,1,LAB_HX,Heat Exchanger Sensible Heating Energy [J] !Hourly
416,1,SUPPLY_FAN,Fan Electricity Energy [J] !Hourly
441,1,EXHAUST_FAN,Fan Electricity Energy [J] !Hourly
687,1,ERV_SA_OUTLET,System Node Temperature [C] !Hourly
715,1,MAINZONE,Zone Mechanical Ventilation Air Changes per Hour [ach] !Hourly
11,1,Electricity:Facility [J] !Hourly
End of Data Dictionary
1,ANNUAL,  50.39,  30.54,   2.00, 178.60
2,1, 1, 1, 0, 1, 0.00,60.00,Thursday
7,-7.05
8,2.375
204,9.280153598591703
205,0.0
290,0.0
339,848.7440901647201
340,0.0
416,0.0
441,0.0
687,-7.05
715,0.0
11,0.0
2,1, 1, 1, 0, 2, 0.00,60.00,Thursday
7,-9.625
8,1.375
204,8.096554465787852
205,0.0
290,0.0
339,839.7333636645558
340,0.0
416,0.0
441,0.0
687,-9.625
715,0.0
11,0.0
2,1, 1, 1, 0, 3, 0.00,60.00,Thursday
7,-9.0625
8,1.625
204,7.05675699543632
205,0.0
290,0.0
339,831.0640215564204
340,0.0
416,0.0
441,0.0
687,-9.0625
715,0.0
11,0.0
2,1, 1, 1, 0, 4, 0.00,60.00,Thursday
7,-10.0625
8,0.75
204,6.117934452139929
205,0.0
290,0.0
339,822.5762077433145
340,0.0
416,0.0
441,0.0
687,-10.0625
715,0.0
11,0.0
2,1, 1, 1, 0, 5, 0.00,60.00,Thursday
7,-11.0
8,0.0
204,5.253157357913485
205,0.0
290,0.0
339,814.4010718390201
340,0.0
416,0.0
441,0.0
687,-11.0
715,0.0
11,0.0
2,1, 1, 1, 0, 6, 0.00,60.00,Thursday
7,-9.625
8,1.25
204,4.477503620677259
205,0.0
290,0.0
339,806.3941897831239
340,0.0
416,0.0
441,0.0
687,-9.625
715,0.0
11,0.0
2,1, 1, 1, 0, 7, 0.00,60.00,Thursday
7,-9.55
8,1.375
204,3.76920351837741
205,0.0
290,0.0
339,798.4545242876301
340,0.0
416,0.0
441,0.0
687,-9.55
715,0.0
11,0.0
2,1, 1, 1, 0, 8, 0.00,60.00,Thursday
7,-10.625
8,1.0
204,21.03616570086525
205,28006247.638543513
290,723220.8471902705
339,792.9132463613271
340,0.0
416,0.0
441,0.0
687,-10.625
715,0.0
11,0.0
2,1, 1, 1, 0, 9, 0.00,60.00,Thursday
7,-8.75
8,1.625
204,21.0
205,16612795.181976348
290,0.0
339,788.2616747311886
340,0.0
416,0.0
441,0.0
687,-8.75
715,0.0
11,0.0
2,1, 1, 1, 0,10, 0.00,60.00,Thursday
7,-9.025
8,1.375
204,21.0
205,5222976.477650557
290,0.0
339,822.1769348091934
340,4658077.537504468
416,18744.036887998802
441,18744.036887998802
687,17.214726977154974
715,0.7792444961535647
11,6816288.073775997
2,1, 1, 1, 0,11, 0.00,60.00,Thursday
7,-8.125
8,1.625
204,21.0
205,981078.2181944188
290,0.0
339,872.9831342624893
340,4450814.021366127
416,18744.036887998802
441,18744.036887998802
687,16.946615843823768
715,0.7804827163673851
11,8346288.073775997
2,1, 1, 1, 0,12, 0.00,60.00,Thursday
7,-5.000000000000001
8,2.625
204,21.0
205,0.0
290,335027.69044394686
339,899.0491789976418
340,3940998.35819289
416,18744.036887998802
441,18744.036887998802
687,17.203158414330133
715,0.7775579525503383
11,8346288.073775997
2,1, 1, 1, 0,13, 0.00,60.00,Thursday
7,-3.925
8,3.625
204,21.097531473659078
205,0.0
290,671735.484862707
339,911.7536730074396
340,3786780.696388542
416,18744.036887998802
441,18744.036887998802
687,17.410150797380744
715,0.7781831206710318
11,8346288.073775997
2,1, 1, 1, 0,14, 0.00,60.00,Thursday
7,-2.75
8,4.0
204,21.00476978717801
205,4898249.686053541
290,0.0
339,787.7471692985239
340,3608179.9815496365
416,18744.036887998802
441,18744.036887998802
687,17.58202908687298
715,0.7789694123071627
11,256368.07377599765
2,1, 1, 1, 0,15, 0.00,60.00,Thursday
7,-0.8750000000000001
8,4.625
204,21.000000464347956
205,905168.2185445047
290,226452.69793495824
339,757.7462091443604
340,3319337.2207175605
416,18744.036887998802
441,18744.036887998802
687,17.82199346595816
715,0.7781817472436644
11,6816288.073775997
2,1, 1, 1, 0,16, 0.00,60.00,Thursday
7,-0.075
8,4.375
204,21.117202625652943
205,0.0
290,567895.3541334637
339,849.411984643456
340,3209863.898051671
416,18744.036887998802
441,18744.036887998802
687,17.997601723130288
715,0.7784585322053585
11,8346288.073775997
2,1, 1, 1, 0,17, 0.00,60.00,Thursday
7,-1.25
8,4.625
204,21.314839562025885
205,0.0
290,603535.3391611858
339,888.3625170316151
340,3416584.6936333515
416,18744.036887998802
441,18744.036887998802
687,17.998037220288893
715,0.7792144070321816
11,8346288.073775997
2,1, 1, 1, 0,18, 0.00,60.00,Thursday
7,-2.0625
8,3.75
204,21.488943985882024
205,0.0
290,630929.9805222191
339,905.8243336066134
340,3564219.2483747005
416,18744.036887998802
441,18744.036887998802
687,18.020033655087552
715,0.7787768971526771
11,8346288.073775997
2,1, 1, 1, 0,19, 0.00,60.00,Thursday
7,-3.9125
8,3.0
204,21.001126661790572
205,4678430.90067673
290,0.0
339,903.8183764979933
340,0.0
416,0.0
441,0.0
687,-3.9125
715,0.0
11,0.0
2,1, 1, 1, 0,20, 0.00,60.00,Thursday
7,-5.625
8,2.375
204,17.632617362344746
205,0.0
290,0.0
339,896.0160095667243
340,0.0
416,0.0
441,0.0
687,-5.625
715,0.0
11,0.0
2,1, 1, 1, 0,21, 0.00,60.00,Thursday
7,-5.0
8,2.625
204,15.25318876670088
205,0.0
290,0.0
339,887.9085557889798
340,0.0
416,0.0
441,0.0
687,-5.0
715,0.0
11,0.0
2,1, 1, 1, 0,22, 0.00,60.00,Thursday
7,-4.15
8,3.0
204,13.502760244885867
205,0.0
290,0.0
339,877.5852523158285
340,0.0
416,0.0
441,0.0
687,-4.15
715,0.0
11,0.0
2,1, 1, 1, 0,23, 0.00,60.00,Thursday
7,-4.0
8,2.375
204,11.954235008794175
205,0.0
290,0.0
339,867.6374880008085
340,0.0
416,0.0
441,0.0
687,-4.0
715,0.0
11,0.0
2,1, 1, 1, 0,24, 0.00,60.00,Thursday
7,-3.875
8,2.625
204,10.560902104646832
205,0.0
290,0.0
339,858.1534192359909
340,0.0
416,0.0
441,0.0
687,-3.875
715,0.0
11,0.0
2,2, 1, 2, 0, 1, 0.00,60.00,Friday
7,-3.925
8,3.625
204,9.30008129662343
205,0.0
290,0.0
339,848.5525823950051
340,0.0
416,0.0
441,0.0
687,-3.925
715,0.0
11,0.0
2,2, 1, 2, 0, 2, 0.00,60.00,Friday
7,-4.0
8,3.375
204,8.157215438139218
205,0.0
290,0.0
339,838.9076011634234
340,0.0
416,0.0
441,0.0
687,-4.0
715,0.0
11,0.0
2,2, 1, 2, 0, 3, 0.00,60.00,Friday
7,-4.0
8,3.625
204,7.142864956519448
205,0.0
290,0.0
339,829.6879316319273
340,0.0
416,0.0
441,0.0
687,-4.0
715,0.0
11,0.0
2,2, 1, 2, 0, 4, 0.00,60.00,Friday
7,-4.0
8,3.375
204,6.223122372633731
205,0.0
290,0.0
339,820.5321988438367
340,0.0
416,0.0
441,0.0
687,-4.0
715,0.0
11,0.0
2,2, 1, 2, 0, 5, 0.00,60.00,Friday
7,-4.0
8,4.875
204,5.385243968206572
205,0.0
290,0.0
339,811.476203762675
340,0.0
416,0.0
441,0.0
687,-4.0
715,0.0
11,0.0
2,2, 1, 2, 0, 6, 0.00,60.00,Friday
7,-4.375
8,5.375
204,4.617248513495687
205,0.0
290,0.0
339,801.5548328979851
340,0.0
416,0.0
441,0.0
687,-4.375
715,0.0
11,0.0
2,2, 1, 2, 0, 7, 0.00,60.00,Friday
7,-6.1
8,5.0
204,3.912418156203384
205,0.0
290,0.0
339,792.1142073491201
340,0.0
416,0.0
441,0.0
687,-6.1
715,0.0
11,0.0
2,2, 1, 2, 0, 8, 0.00,60.00,Friday
7,-7.625
8,3.75
204,21.03724608703014
205,27772880.709812094
290,712497.9475176613
339,785.7237840614061
340,0.0
416,0.0
441,0.0
687,-7.625
715,0.0
11,0.0
2,2, 1, 2, 0, 9, 0.00,60.00,Friday
7,-7.562500000000001
8,4.25
204,21.0
205,16475595.240292072
290,0.0
339,780.6455284339914
340,0.0
416,0.0
441,0.0
687,-7.562500000000001
715,0.0
11,0.0
2,2, 1, 2, 0,10, 0.00,60.00,Friday
7,-8.3625
8,4.375
204,21.0
205,5192402.8913992485
290,0.0
339,815.8974068521791
340,4545083.9608576875
416,18744.036887998802
441,18744.036887998802
687,17.241022888420726
715,0.7790567173184663
11,6816288.073775997
2,2, 1, 2, 0,11, 0.00,60.00,Friday
7,-9.0
8,4.625
204,21.0
205,979986.5696820864
290,0.0
339,868.974426010112
340,4589042.102216075
416,18744.036887998802
441,18744.036887998802
687,16.856490571361736
715,0.7804911718176674
11,8346288.073775997
2,2, 1, 2, 0,12, 0.00,60.00,Friday
7,-8.0
8,3.75
204,21.0
205,0.0
290,391017.701127308
339,896.4294644566326
340,4394500.986619147
416,18744.036887998802
441,18744.036887998802
687,16.763215475422072
715,0.7758154064904795
11,8346288.073775997
2,2, 1, 2, 0,13, 0.00,60.00,Friday
7,-7.775
8,3.625
204,21.102259068865628
205,0.0
290,777278.4614036097
339,910.9682748446171
340,4366773.098060937
416,18744.036887998802
441,18744.036887998802
687,16.83447623253273
715,0.777181066181866
11,8346288.073775997
2,2, 1, 2, 0,14, 0.00,60.00,Friday
7,-7.375
8,3.375
204,21.00505516082374
205,4737558.3099042745
290,0.0
339,787.3412818663207
340,4305094.365660848
416,18744.036887998802
441,18744.036887998802
687,16.890791063155465
715,0.7790941948915875
11,256368.07377599765
2,2, 1, 2, 0,15, 0.00,60.00,Friday
7,-6.4375
8,3.0
204,21.00000049462021
205,861586.1395699161
290,358238.3836617009
339,758.085384540693
340,4155018.8155887285
416,18744.036887998802
441,18744.036887998802
687,16.987671473562862
715,0.775161466213398
11,6816288.073775997
2,2, 1, 2, 0,16, 0.00,60.00,Friday
7,-6.6625
8,2.375
204,21.113813875549674
205,0.0
290,746940.4004486375
339,851.1103180858438
340,4200063.580662475
416,18744.036887998802
441,18744.036887998802
687,17.008939992882
715,0.7766395843174632
11,8346288.073775997
2,2, 1, 2, 0,17, 0.00,60.00,Friday
7,-8.25
8,2.0
204,21.29978433601554
205,0.0
290,793493.4608982084
339,889.9958223465451
340,4468548.860258721
416,18744.036887998802
441,18744.036887998802
687,16.936494968959536
715,0.7792215754033129
11,8346288.073775997
2,2, 1, 2, 0,18, 0.00,60.00,Friday
7,-8.375
8,2.0
204,21.471767937171634
205,0.0
290,802098.2947252187
339,907.9194157698253
340,4511733.747411784
416,18744.036887998802
441,18744.036887998802
687,17.058846279322655
715,0.775343589492784
11,8346288.073775997
2,2, 1, 2, 0,19, 0.00,60.00,Friday
7,-9.25
8,2.0
204,21.001054038599914
205,4552129.407155139
290,0.0
339,906.1964912548851
340,0.0
416,0.0
441,0.0
687,-9.25
715,0.0
11,0.0
2,2, 1, 2, 0,20, 0.00,60.00,Friday
7,-10.0
8,2.0
204,17.688087163414906
205,0.0
290,0.0
339,898.4114102581207
340,0.0
416,0.0
441,0.0
687,-10.0
715,0.0
11,0.0
2,2, 1, 2, 0,21, 0.00,60.00,Friday
7,-9.3125
8,2.0
204,15.330058970216724
205,0.0
290,0.0
339,890.23745929297
340,0.0
416,0.0
441,0.0
687,-9.3125
715,0.0
11,0.0
2,2, 1, 2, 0,22, 0.00,60.00,Friday
7,-9.5875
8,1.375
204,13.580176760531256
205,0.0
290,0.0
339,880.1490614339386
340,0.0
416,0.0
441,0.0
687,-9.5875
715,0.0
11,0.0
2,2, 1, 2, 0,23, 0.00,60.00,Friday
7,-10.0
8,1.0
204,12.014714879709949
205,0.0
290,0.0
339,870.5036210679239
340,0.0
416,0.0
441,0.0
687,-10.0
715,0.0
11,0.0
2,2, 1, 2, 0,24, 0.00,60.00,Friday
7,-9.25
8,1.0
204,10.606332816580961
205,0.0
290,0.0
339,861.1434919329922
340,0.0
416,0.0
441,0.0
687,-9.25
715,0.0
11,0.0
2,3, 1, 3, 0, 1, 0.00,60.00,Saturday
7,-9.55
8,1.0
204,9.32578052852142
205,0.0
290,0.0
339,852.0415353732433
340,0.0
416,0.0
441,0.0
687,-9.55
715,0.0
11,0.0
2,3, 1, 3, 0, 2, 0.00,60.00,Saturday
7,-10.0
8,1.0
204,8.145999751308553
205,0.0
290,0.0
339,843.143038698006
340,0.0
416,0.0
441,0.0
687,-10.0
715,0.0
11,0.0
2,3, 1, 3, 0, 3, 0.00,60.00,Saturday
7,-9.6875
8,1.625
204,7.085251997258528
205,0.0
290,0.0
339,834.4113590547547
340,0.0
416,0.0
441,0.0
687,-9.6875
715,0.0
11,0.0
2,3, 1, 3, 0, 4, 0.00,60.00,Saturday
7,-10.4375
8,2.625
204,6.1099295824747735
205,0.0
290,0.0
339,825.6407307667354
340,0.0
416,0.0
441,0.0
687,-10.4375
715,0.0
11,0.0
2,3, 1, 3, 0, 5, 0.00,60.00,Saturday
7,-11.0
8,2.375
204,5.207859890132578
205,0.0
290,0.0
339,816.854356791731
340,0.0
416,0.0
441,0.0
687,-11.0
715,0.0
11,0.0
2,3, 1, 3, 0, 6, 0.00,60.00,Saturday
7,-10.3125
8,2.625
204,4.391035650098587
205,0.0
290,0.0
339,808.4036215934623
340,0.0
416,0.0
441,0.0
687,-10.3125
715,0.0
11,0.0
2,3, 1, 3, 0, 7, 0.00,60.00,Saturday
7,-10.5875
8,2.375
204,3.636665888760767
205,0.0
290,0.0
339,800.0514799579577
340,0.0
416,0.0
441,0.0
687,-10.5875
715,0.0
11,0.0
2,3, 1, 3, 0, 8, 0.00,60.00,Saturday
7,-11.625
8,2.0
204,2.928231012698114
205,0.0
290,0.0
339,792.0590473186847
340,0.0
416,0.0
441,0.0
687,-11.625
715,0.0
11,0.0
2,3, 1, 3, 0, 9, 0.00,60.00,Saturday
7,-11.624999999999998
8,2.0
204,2.2802485697063437
205,0.0
290,0.0
339,784.2674539404514
340,0.0
416,0.0
441,0.0
687,-11.624999999999998
715,0.0
11,0.0
2,3, 1, 3, 0,10, 0.00,60.00,Saturday
7,-11.15
8,3.25
204,1.767242470522937
205,0.0
290,0.0
339,776.4914971146327
340,0.0
416,0.0
441,0.0
687,-11.15
715,0.0
11,0.0
2,3, 1, 3, 0,11, 0.00,60.00,Saturday
7,-11.0
8,5.25
204,1.3187275926713844
205,0.0
290,0.0
339,768.0572902178673
340,0.0
416,0.0
441,0.0
687,-11.0
715,0.0
11,0.0
2,3, 1, 3, 0,12, 0.00,60.00,Saturday
7,-10.5625
8,4.125
204,0.8582006647905582
205,0.0
290,0.0
339,759.3114340919617
340,0.0
416,0.0
441,0.0
687,-10.5625
715,0.0
11,0.0
2,3, 1, 3, 0,13, 0.00,60.00,Saturday
7,-9.4875
8,3.625
204,0.4025749163660129
205,0.0
290,0.0
339,751.6855255703905
340,0.0
416,0.0
441,0.0
687,-9.4875
715,0.0
11,0.0
2,3, 1, 3, 0,14, 0.00,60.00,Saturday
7,-8.375
8,3.375
204,-0.023661922406426728
205,0.0
290,0.0
339,744.2486940629306
340,0.0
416,0.0
441,0.0
687,-8.375
715,0.0
11,0.0
2,3, 1, 3, 0,15, 0.00,60.00,Saturday
7,-7.375
8,3.625
204,-0.4247371172714397
205,0.0
290,0.0
339,737.1392086429996
340,0.0
416,0.0
441,0.0
687,-7.375
715,0.0
11,0.0
2,3, 1, 3, 0,16, 0.00,60.00,Saturday
7,-6.375
8,4.625
204,-0.8094121827120228
205,0.0
290,0.0
339,729.865077856454
340,0.0
416,0.0
441,0.0
687,-6.375
715,0.0
11,0.0
2,3, 1, 3, 0,17, 0.00,60.00,Saturday
7,-6.625
8,3.75
204,-1.1799970323084632
205,0.0
290,0.0
339,722.6116979013667
340,0.0
416,0.0
441,0.0
687,-6.625
715,0.0
11,0.0
2,3, 1, 3, 0,18, 0.00,60.00,Saturday
7,-6.6875
8,3.625
204,-1.52219961188442
205,0.0
290,0.0
339,715.9621742278698
340,0.0
416,0.0
441,0.0
687,-6.6875
715,0.0
11,0.0
2,3, 1, 3, 0,19, 0.00,60.00,Saturday
7,-6.8125
8,4.0
204,-1.8302348309817242
205,0.0
290,0.0
339,709.2934066801164
340,0.0
416,0.0
441,0.0
687,-6.8125
715,0.0
11,0.0
2,3, 1, 3, 0,20, 0.00,60.00,Saturday
7,-6.375
8,4.625
204,-2.109066836051399
205,0.0
290,0.0
339,702.6123528792356
340,0.0
416,0.0
441,0.0
687,-6.375
715,0.0
11,0.0
2,3, 1, 3, 0,21, 0.00,60.00,Saturday
7,-6.0625
8,5.625
204,-2.358177620030609
205,0.0
290,0.0
339,695.6517390126538
340,0.0
416,0.0
441,0.0
687,-6.0625
715,0.0
11,0.0
2,3, 1, 3, 0,22, 0.00,60.00,Saturday
7,-6.0375
8,6.0
204,-2.5884624347684553
205,0.0
290,0.0
339,688.4268171133338
340,0.0
416,0.0
441,0.0
687,-6.0375
715,0.0
11,0.0
2,3, 1, 3, 0,23, 0.00,60.00,Saturday
7,-6.625
8,6.0
204,-2.803964615916142
205,0.0
290,0.0
339,681.3138999792574
340,0.0
416,0.0
441,0.0
687,-6.625
715,0.0
11,0.0
2,3, 1, 3, 0,24, 0.00,60.00,Saturday
7,-7.0625
8,5.375
204,-3.00700149346106
205,0.0
290,0.0
339,674.4974250407811
340,0.0
416,0.0
441,0.0
687,-7.0625
715,0.0
11,0.0
2,4, 1, 4, 0, 1, 0.00,60.00,Sunday
7,-7.6625
8,4.375
204,-3.1922604697142885
205,0.0
290,0.0
339,668.2936145961274
340,0.0
416,0.0
441,0.0
687,-7.6625
715,0.0
11,0.0
2,4, 1, 4, 0, 2, 0.00,60.00,Sunday
7,-8.0
8,4.0
204,-3.3675677514839624
205,0.0
290,0.0
339,662.5546479497182
340,0.0
416,0.0
441,0.0
687,-8.0
715,0.0
11,0.0
2,4, 1, 4, 0, 3, 0.00,60.00,Sunday
7,-7.75
8,4.625
204,-3.5279530400650048
205,0.0
290,0.0
339,656.8932920781832
340,0.0
416,0.0
441,0.0
687,-7.75
715,0.0
11,0.0
2,4, 1, 4, 0, 4, 0.00,60.00,Sunday
7,-7.225
8,3.75
204,-3.674989762803924
205,0.0
290,0.0
339,651.2801088936077
340,0.0
416,0.0
441,0.0
687,-7.225
715,0.0
11,0.0
2,4, 1, 4, 0, 5, 0.00,60.00,Sunday
7,-7.0
8,4.25
204,-3.814300376797128
205,0.0
290,0.0
339,646.0642945528788
340,0.0
416,0.0
441,0.0
687,-7.0
715,0.0
11,0.0
2,4, 1, 4, 0, 6, 0.00,60.00,Sunday
7,-6.812499999999999
8,4.375
204,-3.9516015776080784
205,0.0
290,0.0
339,640.6663408909188
340,0.0
416,0.0
441,0.0
687,-6.812499999999999
715,0.0
11,0.0
2,4, 1, 4, 0, 7, 0.00,60.00,Sunday
7,-6.8875
8,4.0
204,-4.079734066038082
205,0.0
290,0.0
339,635.5500656787626
340,0.0
416,0.0
441,0.0
687,-6.8875
715,0.0
11,0.0
2,4, 1, 4, 0, 8, 0.00,60.00,Sunday
7,-7.0
8,4.625
204,-4.206745091047387
205,0.0
290,0.0
339,630.5038556149268
340,0.0
416,0.0
441,0.0
687,-7.0
715,0.0
11,0.0
2,4, 1, 4, 0, 9, 0.00,60.00,Sunday
7,-6.6875
8,5.0
204,-4.328145960881608
205,0.0
290,0.0
339,625.3287219398071
340,0.0
416,0.0
441,0.0
687,-6.6875
715,0.0
11,0.0
2,4, 1, 4, 0,10, 0.00,60.00,Sunday
7,-6.1875
8,6.25
204,-4.4304947672687
205,0.0
290,0.0
339,620.034615497816
340,0.0
416,0.0
441,0.0
687,-6.1875
715,0.0
11,0.0
2,4, 1, 4, 0,11, 0.00,60.00,Sunday
7,-6.625
8,5.75
204,-4.51512158135773
205,0.0
290,0.0
339,614.4891815603942
340,0.0
416,0.0
441,0.0
687,-6.625
715,0.0
11,0.0
2,4, 1, 4, 0,12, 0.00,60.00,Sunday
7,-6.562500000000001
8,3.75
204,-4.590438360077119
205,0.0
290,0.0
339,609.701697428359
340,0.0
416,0.0
441,0.0
687,-6.562500000000001
715,0.0
11,0.0
2,4, 1, 4, 0,13, 0.00,60.00,Sunday
7,-6.1125
8,4.25
204,-4.661930583965836
205,0.0
290,0.0
339,605.3835158362023
340,0.0
416,0.0
441,0.0
687,-6.1125
715,0.0
11,0.0
2,4, 1, 4, 0,14, 0.00,60.00,Sunday
7,-6.0
8,4.375
204,-4.736924604898803
205,0.0
290,0.0
339,600.9104291046316
340,0.0
416,0.0
441,0.0
687,-6.0
715,0.0
11,0.0
2,4, 1, 4, 0,15, 0.00,60.00,Sunday
7,-5.375
8,4.625
204,-4.81106258299382
205,0.0
290,0.0
339,596.6012978159469
340,0.0
416,0.0
441,0.0
687,-5.375
715,0.0
11,0.0
2,4, 1, 4, 0,16, 0.00,60.00,Sunday
7,-5.0
8,4.375
204,-4.888155672729213
205,0.0
290,0.0
339,592.3033257010745
340,0.0
416,0.0
441,0.0
687,-5.0
715,0.0
11,0.0
2,4, 1, 4, 0,17, 0.00,60.00,Sunday
7,-5.0
8,3.375
204,-4.97498486333725
205,0.0
290,0.0
339,588.3184953870283
340,0.0
416,0.0
441,0.0
687,-5.0
715,0.0
11,0.0
2,4, 1, 4, 0,18, 0.00,60.00,Sunday
7,-5.125
8,3.0
204,-5.054564630916252
205,0.0
290,0.0
339,584.599613003445
340,0.0
416,0.0
441,0.0
687,-5.125
715,0.0
11,0.0
2,4, 1, 4, 0,19, 0.00,60.00,Sunday
7,-5.075
8,2.375
204,-5.120999557584872
205,0.0
290,0.0
339,581.0169735306129
340,0.0
416,0.0
441,0.0
687,-5.075
715,0.0
11,0.0
2,4, 1, 4, 0,20, 0.00,60.00,Sunday
7,-5.0
8,2.0
204,-5.173755148232545
205,0.0
290,0.0
339,577.6073818079834
340,0.0
416,0.0
441,0.0
687,-5.0
715,0.0
11,0.0
2,4, 1, 4, 0,21, 0.00,60.00,Sunday
7,-4.5
8,3.25
204,-5.213701963771403
205,0.0
290,0.0
339,574.2077673355617
340,0.0
416,0.0
441,0.0
687,-4.5
715,0.0
11,0.0
2,4, 1, 4, 0,22, 0.00,60.00,Sunday
7,-4.075
8,2.75
204,-5.240957258140805
205,0.0
290,0.0
339,570.7347272430742
340,0.0
416,0.0
441,0.0
687,-4.075
715,0.0
11,0.0
2,4, 1, 4, 0,23, 0.00,60.00,Sunday
7,-4.0
8,2.0
204,-5.265494786229624
205,0.0
290,0.0
339,567.514083462559
340,0.0
416,0.0
441,0.0
687,-4.0
715,0.0
11,0.0
2,4, 1, 4, 0,24, 0.00,60.00,Sunday
7,-3.875
8,1.375
204,-5.286418249500561
205,0.0
290,0.0
339,564.4123437300793
340,0.0
416,0.0
441,0.0
687,-3.875
715,0.0
11,0.0
2,5, 1, 5, 0, 1, 0.00,60.00,Monday
7,-4.55
8,3.5
204,-5.306280077633218
205,0.0
290,0.0
339,561.3066746843963
340,0.0
416,0.0
441,0.0
687,-4.55
715,0.0
11,0.0
2,5, 1, 5, 0, 2, 0.00,60.00,Monday
7,-5.0
8,3.75
204,-5.327886757386042
205,0.0
290,0.0
339,557.9174690860211
340,0.0
416,0.0
441,0.0
687,-5.0
715,0.0
11,0.0
2,5, 1, 5, 0, 3, 0.00,60.00,Monday
7,-5.0
8,3.0
204,-5.343672759036609
205,0.0
290,0.0
339,554.7764644981811
340,0.0
416,0.0
441,0.0
687,-5.0
715,0.0
11,0.0
2,5, 1, 5, 0, 4, 0.00,60.00,Monday
7,-5.625
8,3.625
204,-5.360811984240322
205,0.0
290,0.0
339,551.7002256546814
340,0.0
416,0.0
441,0.0
687,-5.625
715,0.0
11,0.0
2,5, 1, 5, 0, 5, 0.00,60.00,Monday
7,-6.0
8,3.375
204,-5.381127779557281
205,0.0
290,0.0
339,548.5997609586957
340,0.0
416,0.0
441,0.0
687,-6.0
715,0.0
11,0.0
2,5, 1, 5, 0, 6, 0.00,60.00,Monday
7,-6.749999999999999
8,3.0
204,-5.400517676349563
205,0.0
290,0.0
339,545.6539723155333
340,0.0
416,0.0
441,0.0
687,-6.749999999999999
715,0.0
11,0.0
2,5, 1, 5, 0, 7, 0.00,60.00,Monday
7,-7.7
8,3.0
204,-5.424797299707683
205,0.0
290,0.0
339,542.7756474087947
340,0.0
416,0.0
441,0.0
687,-7.7
715,0.0
11,0.0
2,5, 1, 5, 0, 8, 0.00,60.00,Monday
7,-8.625
8,2.375
204,20.957275914536865
205,42498871.7995851
290,1093203.5425985814
339,540.8053642744635
340,0.0
416,0.0
441,0.0
687,-8.625
715,0.0
11,0.0
2,5, 1, 5, 0, 9, 0.00,60.00,Monday
7,-9.125
8,2.0
204,21.0
205,23139812.902962744
290,0.0
339,539.362295527333
340,0.0
416,0.0
441,0.0
687,-9.125
715,0.0
11,0.0
2,5, 1, 5, 0,10, 0.00,60.00,Monday
7,-9.7
8,2.0
204,21.000000000000004
205,8214606.248012619
290,0.0
339,634.9166186901274
340,4776762.808715737
416,18744.036887998802
441,18744.036887998802
687,17.206030499715453
715,0.7801395435413806
11,6816288.073775997
2,5, 1, 5, 0,11, 0.00,60.00,Monday
7,-10.0
8,2.0
204,21.0
205,2758424.44712088
290,0.0
339,774.0827997806502
340,4774292.902994589
416,18744.036887998802
441,18744.036887998802
687,16.8963874899922
715,0.7807495289851276
11,8346288.073775997
2,5, 1, 5, 0,12, 0.00,60.00,Monday
7,-9.8125
8,2.625
204,21.0
205,866011.0165815932
290,0.0
339,850.1382566612023
340,4703280.97384027
416,18744.036887998802
441,18744.036887998802
687,16.689161356173635
715,0.7775141574863178
11,8346288.073775997
2,5, 1, 5, 0,13, 0.00,60.00,Monday
7,-9.8875
8,2.375
204,21.0
205,74598.58886555064
290,70862.25034127326
339,888.6218001736996
340,4679335.9104909105
416,18744.036887998802
441,18744.036887998802
687,16.48314137285996
715,0.7782271094005507
11,8346288.073775997
2,5, 1, 5, 0,14, 0.00,60.00,Monday
7,-10.0
8,2.0
204,21.0
205,5740650.780584689
290,0.0
339,779.3399345344066
340,4693798.542872311
416,18744.036887998802
441,18744.036887998802
687,16.453250363869365
715,0.7796774524202639
11,256368.07377599765
2,5, 1, 5, 0,15, 0.00,60.00,Monday
7,-10.0
8,2.0
204,21.0
205,1377087.8456361394
290,0.0
339,754.5546190445325
340,4693798.542872312
416,18744.036887998802
441,18744.036887998802
687,16.4532430466956
715,0.7797586404819752
11,6816288.073775997
2,5, 1, 5, 0,16, 0.00,60.00,Monday
7,-10.0
8,2.0
204,21.0
205,0.0
290,185914.77432376196
339,846.2302683559411
340,4693266.02586106
416,18744.036887998802
441,18744.036887998802
687,16.453270556507697
715,0.7794676571004289
11,8346288.073775997
2,5, 1, 5, 0,17, 0.00,60.00,Monday
7,-11.25
8,2.0
204,21.0
205,0.0
290,469596.0952725534
339,886.97822434853
340,4881579.357185726
416,18744.036887998802
441,18744.036887998802
687,16.265821275945456
715,0.7791771800981715
11,8346288.073775997
2,5, 1, 5, 0,18, 0.00,60.00,Monday
7,-11.437500000000002
8,2.0
204,21.0
205,0.0
290,615216.1909241269
339,906.5183742783908
340,4910527.169717334
416,18744.036887998802
441,18744.036887998802
687,16.23774300455747
715,0.7742151516857765
11,8346288.073775997
2,5, 1, 5, 0,19, 0.00,60.00,Monday
7,-11.6625
8,2.0
204,21.0
205,5692058.233342415
290,0.0
339,908.182778917589
340,0.0
416,0.0
441,0.0
687,-11.6625
715,0.0
11,0.0
2,5, 1, 5, 0,20, 0.00,60.00,Monday
7,-12.625
8,3.25
204,17.551959467794845
205,0.0
290,0.0
339,901.5284127702464
340,0.0
416,0.0
441,0.0
687,-12.625
715,0.0
11,0.0
2,5, 1, 5, 0,21, 0.00,60.00,Monday
7,-12.5625
8,2.75
204,14.713837296362598
205,0.0
290,0.0
339,893.6191993153583
340,0.0
416,0.0
441,0.0
687,-12.5625
715,0.0
11,0.0
2,5, 1, 5, 0,22, 0.00,60.00,Monday
7,-13.9875
8,0.75
204,12.729838571525502
205,0.0
290,0.0
339,884.3329202110685
340,0.0
416,0.0
441,0.0
687,-13.9875
715,0.0
11,0.0
2,5, 1, 5, 0,23, 0.00,60.00,Monday
7,-15.625
8,0.0
204,10.976197245245146
205,0.0
290,0.0
339,874.5507818574873
340,0.0
416,0.0
441,0.0
687,-15.625
715,0.0
11,0.0
2,5, 1, 5, 0,24, 0.00,60.00,Monday
7,-14.625
8,1.25
204,9.404205198141174
205,0.0
290,0.0
339,864.9887170462714
340,0.0
416,0.0
441,0.0
687,-14.625
715,0.0
11,0.0
2,6, 1, 6, 0, 1, 0.00,60.00,Tuesday
7,-15.8
8,0.75
204,7.976243425297097
205,0.0
290,0.0
339,855.5717976793769
340,0.0
416,0.0
441,0.0
687,-15.8
715,0.0
11,0.0
2,6, 1, 6, 0, 2, 0.00,60.00,Tuesday
7,-17.0
8,0.0
204,6.664099516756779
205,0.0
290,0.0
339,846.4873896342325
340,0.0
416,0.0
441,0.0
687,-17.0
715,0.0
11,0.0
2,6, 1, 6, 0, 3, 0.00,60.00,Tuesday
7,-15.687499999999998
8,0.625
204,5.480922806155791
205,0.0
290,0.0
339,837.6408823076473
340,0.0
416,0.0
441,0.0
687,-15.687499999999998
715,0.0
11,0.0
2,6, 1, 6, 0, 4, 0.00,60.00,Tuesday
7,-17.4625
8,0.375
204,4.404375698378221
205,0.0
290,0.0
339,828.9960089119369
340,0.0
416,0.0
441,0.0
687,-17.4625
715,0.0
11,0.0
2,6, 1, 6, 0, 5, 0.00,60.00,Tuesday
7,-19.0
8,0.0
204,3.3991809229667096
205,0.0
290,0.0
339,820.5109637520522
340,0.0
416,0.0
441,0.0
687,-19.0
715,0.0
11,0.0
2,6, 1, 6, 0, 6, 0.00,60.00,Tuesday
7,-17.4375
8,0.625
204,2.500370799030899
205,0.0
290,0.0
339,812.2235571939111
340,0.0
416,0.0
441,0.0
687,-17.4375
715,0.0
11,0.0
2,6, 1, 6, 0, 7, 0.00,60.00,Tuesday
7,-18.6875
8,0.375
204,1.6697228958505956
205,0.0
290,0.0
339,804.1277719620008
340,0.0
416,0.0
441,0.0
687,-18.6875
715,0.0
11,0.0
2,6, 1, 6, 0, 8, 0.00,60.00,Tuesday
7,-20.625
8,0.0
204,21.019755659475187
205,31540019.17471606
290,889702.3643941521
339,798.4558945700064
340,0.0
416,0.0
441,0.0
687,-20.625
715,0.0
11,0.0
2,6, 1, 6, 0, 9, 0.00,60.00,Tuesday
7,-19.125
8,0.625
204,21.0
205,18843977.983547967
290,0.0
339,793.8647192115332
340,0.0
416,0.0
441,0.0
687,-19.125
715,0.0
11,0.0
2,6, 1, 6, 0,10, 0.00,60.00,Tuesday
7,-19.25
8,0.375
204,21.0
205,6690610.201804078
290,0.0
339,825.6573857718141
340,6352671.160473496
416,18744.036887998802
441,18744.036887998802
687,16.561094118243805
715,0.77675186753089
11,6816288.073775997
2,6, 1, 6, 0,11, 0.00,60.00,Tuesday
7,-20.0
8,0.0
204,21.0
205,2207675.653417097
290,0.0
339,872.8797374771124
340,6391920.696028105
416,18744.036887998802
441,18744.036887998802
687,16.034408498146462
715,0.7810355228627099
11,8346288.073775997
2,6, 1, 6, 0,12, 0.00,60.00,Tuesday
7,-16.4375
8,0.625
204,21.0
205,765313.4655056613
290,0.0
339,898.8015976176398
340,5763709.018288165
416,18744.036887998802
441,18744.036887998802
687,16.05101380612828
715,0.7721542182453456
11,8346288.073775997
2,6, 1, 6, 0,13, 0.00,60.00,Tuesday
7,-15.3625
8,0.375
204,21.0
205,161421.7399727471
290,0.0
339,913.5063289936862
340,5531085.3226632
416,18744.036887998802
441,18744.036887998802
687,15.814417677603887
715,0.7749349547239593
11,8346288.073775997
2,6, 1, 6, 0,14, 0.00,60.00,Tuesday
7,-15.375
8,0.0
204,21.0
205,6059350.165794963
290,0.0
339,793.0341141016944
340,5504407.005448676
416,18744.036887998802
441,18744.036887998802
687,15.654785096580698
715,0.7797924515705259
11,256368.07377599765
2,6, 1, 6, 0,15, 0.00,60.00,Tuesday
7,-11.499999999999998
8,1.25
204,21.0
205,1758437.714065596
290,0.0
339,762.9293265782834
340,4918584.811426217
416,18744.036887998802
441,18744.036887998802
687,16.228262598084903
715,0.7722596042794074
11,6816288.073775997
2,6, 1, 6, 0,16, 0.00,60.00,Tuesday
7,-12.275
8,1.375
204,21.0
205,255081.55705903465
290,0.0
339,851.3476633306606
340,5035598.457324224
416,18744.036887998802
441,18744.036887998802
687,16.11202691627299
715,0.7751152393977696
11,8346288.073775997
2,6, 1, 6, 0,17, 0.00,60.00,Tuesday
7,-14.625
8,0.375
204,21.0
205,29903.559680335617
290,8924.724316992433
339,889.0953130784771
340,5390318.458857815
416,18744.036887998802
441,18744.036887998802
687,15.759563181926037
715,0.7795536306319865
11,8346288.073775997
2,6, 1, 6, 0,18, 0.00,60.00,Tuesday
7,-14.125000000000002
8,0.625
204,21.0
205,0.0
290,101194.01717086225
339,907.6948862469795
340,5315406.094966752
416,18744.036887998802
441,18744.036887998802
687,15.834592682927253
715,0.7715613371737052
11,8346288.073775997
2,6, 1, 6, 0,19, 0.00,60.00,Tuesday
7,-15.1
8,0.375
204,21.0
205,6246436.950061634
290,0.0
339,909.8180595063004
340,0.0
416,0.0
441,0.0
687,-15.1
715,0.0
11,0.0
2,6, 1, 6, 0,20, 0.00,60.00,Tuesday
7,-17.25
8,0.0
204,16.9430042700667
205,0.0
290,0.0
339,902.5677120362947
340,0.0
416,0.0
441,0.0
687,-17.25
715,0.0
11,0.0
2,6, 1, 6, 0,21, 0.00,60.00,Tuesday
7,-16.625
8,0.625
204,14.23720935573818
205,0.0
290,0.0
339,896.209303720864
340,0.0
416,0.0
441,0.0
687,-16.625
715,0.0
11,0.0
2,6, 1, 6, 0,22, 0.00,60.00,Tuesday
7,-17.8
8,0.375
204,12.088645560810725
205,0.0
290,0.0
339,887.4534022043229
340,0.0
416,0.0
441,0.0
687,-17.8
715,0.0
11,0.0
2,6, 1, 6, 0,23, 0.00,60.00,Tuesday
7,-20.25
8,0.0
204,10.194934720912777
205,0.0
290,0.0
339,877.4886359943641
340,0.0
416,0.0
441,0.0
687,-20.25
715,0.0
11,0.0
2,6, 1, 6, 0,24, 0.00,60.00,Tuesday
7,-18.5
8,1.25
204,8.509291309011346
205,0.0
290,0.0
339,867.7293549131698
340,0.0
416,0.0
441,0.0
687,-18.5
715,0.0
11,0.0
2,7, 1, 7, 0, 1, 0.00,60.00,Wednesday
7,-18.875
8,0.75
204,6.986471253707534
205,0.0
290,0.0
339,858.1682029598513
340,0.0
416,0.0
441,0.0
687,-18.875
715,0.0
11,0.0
2,7, 1, 7, 0, 2, 0.00,60.00,Wednesday
7,-20.625
8,0.0
204,5.575902891102348
205,0.0
290,0.0
339,848.9526635511049
340,0.0
416,0.0
441,0.0
687,-20.625
715,0.0
11,0.0
2,7, 1, 7, 0, 3, 0.00,60.00,Wednesday
7,-18.5
8,1.25
204,4.314827817607792
205,0.0
290,0.0
339,839.9423432727191
340,0.0
416,0.0
441,0.0
687,-18.5
715,0.0
11,0.0
2,7, 1, 7, 0, 4, 0.00,60.00,Wednesday
7,-19.5
8,0.75
204,3.162547184767215
205,0.0
290,0.0
339,831.0917392549993
340,0.0
416,0.0
441,0.0
687,-19.5
715,0.0
11,0.0
2,7, 1, 7, 0, 5, 0.00,60.00,Wednesday
7,-19.125
8,0.0
204,2.1097605397187813
205,0.0
290,0.0
339,822.5514391398694
340,0.0
416,0.0
441,0.0
687,-19.125
715,0.0
11,0.0
2,7, 1, 7, 0, 6, 0.00,60.00,Wednesday
7,-18.4375
8,1.875
204,1.158795963548602
205,0.0
290,0.0
339,814.1804468862231
340,0.0
416,0.0
441,0.0
687,-18.4375
715,0.0
11,0.0
2,7, 1, 7, 0, 7, 0.00,60.00,Wednesday
7,-18.2625
8,1.125
204,0.27134020554619287
205,0.0
290,0.0
339,805.7541643545127
340,0.0
416,0.0
441,0.0
687,-18.2625
715,0.0
11,0.0
2,7, 1, 7, 0, 8, 0.00,60.00,Wednesday
7,-18.625
8,0.0
204,21.0054333260968
205,34556202.92519851
290,839773.250595675
339,800.1121729635039
340,0.0
416,0.0
441,0.0
687,-18.625
715,0.0
11,0.0
2,7, 1, 7, 0, 9, 0.00,60.00,Wednesday
7,-21.1875
8,0.0
204,21.0
205,20302495.263464227
290,0.0
339,795.6655290776149
340,0.0
416,0.0
441,0.0
687,-21.1875
715,0.0
11,0.0
2,7, 1, 7, 0,10, 0.00,60.00,Wednesday