Program Version,EnergyPlus, Version 25.2.0-cf7368216c, YMD=2026.04.20 09:27
1,5,Environment Title[],Latitude[deg],Longitude[deg],Time Zone[],Elevation[m]
2,8,Day of Simulation[],Month[],Day of Month[],DST Indicator[1=yes 0=no],Hour[],StartMinute[],EndMinute[],DayType
3,5,Cumulative Day of Simulation[],Month[],Day of Month[],DST Indicator[1=yes 0=no],DayType  ! When Daily Report Variables Requested
4,2,Cumulative Days of Simulation[],Month[]  ! When Monthly Report Variables Requested
5,1,Cumulative Days of Simulation[] ! When Run Period Report Variables Requested
6,1,Calendar Year of Simulation[] ! When Annual Report Variables Requested
7,1,Environment,Site Outdoor Air Drybulb Temperature [C] !Hourly
8,1,Environment,Site Wind Speed [m/s] !Hourly
204,1,MAINZONE,Zone Mean Air Temperature [C] !Hourly
205,1,MAINZONE,Zone Infiltration Standard Density Volume Flow Rate [m3/s] !Hourly
206,1,MAINZONE,Zone Air System Sensible Heating Energy [J] !Hourly
291,1,MAINZONE,Zone Air System Sensible Cooling Energy [J] !Hourly
340,1,MAINZONE,Zone Air CO2 Concentration [ppm] !Hourly
341,1,LAB_HX,Heat Exchanger Sensible Heating Energy [J] !Hourly
417,1,SUPPLY_FAN,Fan Electricity Energy [J] !Hourly
442,1,EXHAUST_FAN,Fan Electricity Energy [J] !Hourly
688,1,ERV_SA_OUTLET,System Node Temperature [C] !Hourly
11,1,Electricity:Facility [J] !Hourly
End of Data Dictionary
1,ANNUAL,  50.39,  30.54,   2.00, 178.60
2,1, 1, 1, 0, 1, 0.00,60.00,Thursday
7,-7.05
8,2.375
204,20.0
205,0.003474459823225632
206,231567.3485555699
291,0.0
340,403.3436567753489
341,4100370.2423492875
417,18744.036887998802
442,18744.036887998802
688,16.046740669146367
11,37488.073775997604
2,1, 1, 1, 0, 2, 0.00,60.00,Thursday
7,-9.625
8,1.375
204,20.0
205,0.003386163833568519
206,296366.087500253
291,0.0
340,401.50485410315474
341,4488113.795769166
417,18744.036887998802
442,18744.036887998802
688,15.66048257605125
11,37488.073775997604
2,1, 1, 1, 0, 3, 0.00,60.00,Thursday
7,-9.0625
8,1.625
204,20.000000000000004
205,0.0034248346647535585
206,317847.1451802768
291,0.0
340,400.67994901845134
341,4402855.006653078
417,18744.036887998802
442,18744.036887998802
688,15.744836370009383
11,37488.073775997604
2,1, 1, 1, 0, 4, 0.00,60.00,Thursday
7,-10.0625
8,0.75
204,20.0
205,0.0033700908022979755
206,349592.1430934217
291,0.0
340,400.30824435436557
341,4552898.592074502
417,18744.036887998802
442,18744.036887998802
688,15.594825088775677
11,37488.073775997604
2,1, 1, 1, 0, 5, 0.00,60.00,Thursday
7,-11.0
8,0.0
204,20.0
205,0.003340995525512895
206,381094.844620669
291,0.0
340,400.1396019673794
341,4694486.929329991
417,18744.036887998802
442,18744.036887998802
688,15.454183141087253
11,37488.073775997604
2,1, 1, 1, 0, 6, 0.00,60.00,Thursday
7,-9.625
8,1.25
204,20.0
205,0.003401284205940515
206,385784.4074960911
291,0.0
340,400.0632514393611
341,4487375.7794108745
417,18744.036887998802
442,18744.036887998802
688,15.660411145096134
11,37488.073775997604
2,1, 1, 1, 0, 7, 0.00,60.00,Thursday
7,-9.55
8,1.375
204,20.0
205,0.0033965019115414687
206,401186.1459007125
291,0.0
340,400.02869040223675
341,4475759.056009987
417,18744.036887998802
442,18744.036887998802
688,15.671650980137823
11,37488.073775997604
2,1, 1, 1, 0, 8, 0.00,60.00,Thursday
7,-10.625
8,1.0
204,20.0
205,0.0033688019311711335
206,430947.60033971927
291,0.0
340,400.0129929203989
341,4637504.789978161
417,18744.036887998802
442,18744.036887998802
688,15.510393581013673
11,37488.073775997604
2,1, 1, 1, 0, 9, 0.00,60.00,Thursday
7,-8.75
8,1.625
204,20.000000000000004
205,0.0034125437045371193
206,407810.80174996005
291,0.0
340,400.00588690080804
341,4355609.36088185
417,18744.036887998802
442,18744.036887998802
688,15.79162480340177
11,37488.073775997604
2,1, 1, 1, 0,10, 0.00,60.00,Thursday
7,-9.025
8,1.375
204,21.962905421437412
205,0.003386779779376072
206,0.0
291,857814.5266863108
340,508.70585146699955
341,4656339.590563521
417,18744.036887998802
442,18744.036887998802
688,17.206179293222927
11,6816288.073775997
2,1, 1, 1, 0,11, 0.00,60.00,Thursday
7,-8.125
8,1.625
204,23.16686390049493
205,0.0033910006691969695
206,0.0
291,841703.8555191663
340,699.8494529961204
341,4727666.606388801
417,18744.036887998802
442,18744.036887998802
688,18.50063090679203
11,8346288.073775997
2,1, 1, 1, 0,12, 0.00,60.00,Thursday
7,-5.000000000000001
8,2.625
204,23.33407134945429
205,0.003496051291382381
206,0.0
291,753667.3771763293
340,812.2652968657067
341,4289385.30185993
417,18744.036887998802
442,18744.036887998802
688,19.15770538954571
11,8346288.073775997
2,1, 1, 1, 0,13, 0.00,60.00,Thursday
7,-3.925
8,3.625
204,23.42473088002473
205,0.003675315484011584
206,0.0
291,724017.7408423328
340,859.0608458359749
341,4144096.257134827
417,18744.036887998802
442,18744.036887998802
688,19.414365764101085
11,8346288.073775997
2,1, 1, 1, 0,14, 0.00,60.00,Thursday
7,-2.75
8,4.0
204,20.78784991410076
205,0.0037404328003496296
206,0.0
291,519515.4002710958
340,782.2290856576117
341,3612067.1466536312
417,18744.036887998802
442,18744.036887998802
688,17.60459472451919
11,256368.07377599765
2,1, 1, 1, 0,15, 0.00,60.00,Thursday
7,-0.8750000000000001
8,4.625
204,22.27885044449883
205,0.0038865072916282727
206,0.0
291,653335.5467650874
340,751.3758676204076
341,3468271.873065631
417,18744.036887998802
442,18744.036887998802
688,18.65673555866382
11,6816288.073775997
2,1, 1, 1, 0,16, 0.00,60.00,Thursday
7,-0.075
8,4.375
204,23.51585836842811
205,0.0038020810604345264
206,0.0
291,625771.722811636
340,811.0331162599998
341,3575987.3529734616
417,18744.036887998802
442,18744.036887998802
688,20.047996638368613
11,8346288.073775997
2,1, 1, 1, 0,17, 0.00,60.00,Thursday
7,-1.25
8,4.625
204,23.565632526590683
205,0.003889464334821533
206,0.0
291,653646.8745422228
340,857.0674984470141
341,3764031.8098895117
417,18744.036887998802
442,18744.036887998802
688,19.94559261488044
11,8346288.073775997
2,1, 1, 1, 0,18, 0.00,60.00,Thursday
7,-2.0625
8,3.75
204,23.60106825998063
205,0.0036827599286197226
206,0.0
291,679150.5356556368
340,876.0402867038653
341,3889016.5807356313
417,18744.036887998802
442,18744.036887998802
688,19.84128994192117
11,8346288.073775997
2,1, 1, 1, 0,19, 0.00,60.00,Thursday
7,-3.9125
8,3.0
204,20.554420075184
205,0.003536996234808504
206,7535.975391308137
291,324674.4714061051
340,754.5369687141025
341,3745207.359389949
417,18744.036887998802
442,18744.036887998802
688,17.186615563823104
11,37488.073775997604
2,1, 1, 1, 0,20, 0.00,60.00,Thursday
7,-5.625
8,2.375
204,20.000000879644006
205,0.0034540590055991455
206,43755.82307528755
291,25022.057549988473
340,593.0721005044076
341,3884278.35561827
417,18744.036887998802
442,18744.036887998802
688,16.260345098397885
11,37488.073775997604
2,1, 1, 1, 0,21, 0.00,60.00,Thursday
7,-5.0
8,2.625
204,20.000000000026937
205,0.003489003758008023
206,129178.29545260032
291,0.0
340,484.86501758910885
341,3790456.8307147464
417,18744.036887998802
442,18744.036887998802
688,16.354129910808627
11,37488.073775997604
2,1, 1, 1, 0,22, 0.00,60.00,Thursday
7,-4.15
8,3.0
204,20.0
205,0.0035400789580765204
206,177957.69891865592
291,0.0
340,437.93921379416355
341,3662498.8132464625
417,18744.036887998802
442,18744.036887998802
688,16.48165431482896
11,37488.073775997604
2,1, 1, 1, 0,23, 0.00,60.00,Thursday
7,-4.0
8,2.375
204,20.0
205,0.0034322063403679965
206,206954.15734115813
291,0.0
340,416.94793191624126
341,3639803.859951339
417,18744.036887998802
442,18744.036887998802
688,16.50417096515156
11,37488.073775997604
2,1, 1, 1, 0,24, 0.00,60.00,Thursday
7,-3.875
8,2.625
204,20.0
205,0.00347374885523138
206,244798.58540496422
291,0.0
340,407.5904303354034
341,3621446.640832511
417,18744.036887998802
442,18744.036887998802
688,16.522926486011777
11,37488.073775997604
2,2, 1, 2, 0, 1, 0.00,60.00,Friday
7,-3.925
8,3.625
204,20.0
205,0.00366931427649314
206,294959.7287226032
291,0.0
340,403.3984491858233
341,3629602.430791529
417,18744.036887998802
442,18744.036887998802
688,16.51542410834717
11,37488.073775997604
2,2, 1, 2, 0, 2, 0.00,60.00,Friday
7,-4.0
8,3.375
204,20.0
205,0.003612405598440292
206,313677.3568403825
291,0.0
340,401.51883872153326
341,3641102.7687201146
417,18744.036887998802
442,18744.036887998802
688,16.50416789893458
11,37488.073775997604
2,2, 1, 2, 0, 3, 0.00,60.00,Friday
7,-4.0
8,3.625
204,20.0
205,0.003667572880541937
206,340060.6860897146
291,0.0
340,400.67993484132387
341,3641102.768720113
417,18744.036887998802
442,18744.036887998802
688,16.504160339714062
11,37488.073775997604
2,2, 1, 2, 0, 4, 0.00,60.00,Friday
7,-4.0
8,3.375
204,20.0
205,0.003611610840682202
206,351844.4618185778
291,0.0
340,400.30419418276006
341,3642031.0955001223
417,18744.036887998802
442,18744.036887998802
688,16.504147401899004
11,37488.073775997604
2,2, 1, 2, 0, 5, 0.00,60.00,Friday
7,-4.0
8,4.875
204,20.0
205,0.0040225127514351726
206,411138.7749277664
291,0.0
340,400.13611219480305
341,3640847.706917605
417,18744.036887998802
442,18744.036887998802
688,16.50414135917557
11,37488.073775997604
2,2, 1, 2, 0, 6, 0.00,60.00,Friday
7,-4.375
8,5.375
204,20.000000000000004
205,0.0041836889875563376
206,449080.6862779379
291,0.0
340,400.06053925003414
341,3695277.0241921404
417,18744.036887998802
442,18744.036887998802
688,16.44789652127763
11,37488.073775997604
2,2, 1, 2, 0, 7, 0.00,60.00,Friday
7,-6.1
8,5.0
204,20.0
205,0.004081394272185991
206,485254.0336829134
291,0.0
340,400.02704632332933
341,3954474.8585943356
417,18744.036887998802
442,18744.036887998802
688,16.189153908385723
11,37488.073775997604
2,2, 1, 2, 0, 8, 0.00,60.00,Friday
7,-7.625
8,3.75
204,20.0
205,0.003758236916686517
206,486675.60124891694
291,0.0
340,400.0121190971853
341,4184756.1766938
417,18744.036887998802
442,18744.036887998802
688,15.960399669827847
11,37488.073775997604
2,2, 1, 2, 0, 9, 0.00,60.00,Friday
7,-7.562500000000001
8,4.25
204,20.0
205,0.0039011629868561854
206,506343.5815238313
291,0.0
340,400.0054587718422
341,4176010.1537189716
417,18744.036887998802
442,18744.036887998802
688,15.96976038424765
11,37488.073775997604
2,2, 1, 2, 0,10, 0.00,60.00,Friday
7,-8.3625
8,4.375
204,21.86402069590983
205,0.003933387436821799
206,0.0
291,835151.1380934746
340,508.50079998465935
341,4543352.878275427
417,18744.036887998802
442,18744.036887998802
688,17.232422630839793
11,6816288.073775997
2,2, 1, 2, 0,11, 0.00,60.00,Friday
7,-9.0
8,4.625
204,22.99518158549794
205,0.0040060276971818215
206,0.0
291,857444.5588103984
340,698.3776653283314
341,4835539.520592008
417,18744.036887998802
442,18744.036887998802
688,18.240810215811663
11,8346288.073775997
2,2, 1, 2, 0,12, 0.00,60.00,Friday
7,-8.0
8,3.75
204,23.133159475630137
205,0.0037835523073163216
206,0.0
291,829533.4956073381
340,809.7838851908343
341,4710022.971127906
417,18744.036887998802
442,18744.036887998802
688,18.53469375597389
11,8346288.073775997
2,2, 1, 2, 0,13, 0.00,60.00,Friday
7,-7.775
8,3.625
204,23.22492733007852
205,0.0037355895229905334
206,0.0
291,822061.3799007081
340,858.197208375448
341,4693563.890188023
417,18744.036887998802
442,18744.036887998802
688,18.669233840780823
11,8346288.073775997
2,2, 1, 2, 0,14, 0.00,60.00,Friday
7,-7.375
8,3.375
204,20.598192965213556
205,0.0036628921835774584
206,50519.13661921701
291,465569.8189921231
340,777.1577800486492
341,4271825.85370544
417,18744.036887998802
442,18744.036887998802
688,16.70487134487739
11,256368.07377599765
2,2, 1, 2, 0,15, 0.00,60.00,Friday
7,-6.4375
8,3.0
204,22.082280528052056
205,0.0035899957614894283
206,0.0
291,790923.4370270089
340,767.6971576414905
341,4280970.370663598
417,18744.036887998802
442,18744.036887998802
688,17.695514361292076
11,6816288.073775997
2,2, 1, 2, 0,16, 0.00,60.00,Friday
7,-6.6625
8,2.375
204,23.275476031153588
205,0.0034799662402284727
206,0.0
291,801430.0976953732
340,831.5099309576958
341,4524726.837399512
417,18744.036887998802
442,18744.036887998802
688,18.831535057797737
11,8346288.073775997
2,2, 1, 2, 0,17, 0.00,60.00,Friday
7,-8.25
8,2.0
204,23.323089020307197
205,0.003435526978050565
206,0.0
291,836356.6959234877
340,868.2100321951559
341,4780352.991442134
417,18744.036887998802
442,18744.036887998802
688,18.68741905933577
11,8346288.073775997
2,2, 1, 2, 0,18, 0.00,60.00,Friday
7,-8.375
8,2.0
204,23.363419908455526
205,0.0034553968954476643
206,0.0
291,842796.2673942242
340,883.9122619375523
341,4802779.132994501
417,18744.036887998802
442,18744.036887998802
688,18.693503335552837
11,8346288.073775997
2,2, 1, 2, 0,19, 0.00,60.00,Friday
7,-9.25
8,2.0
204,20.440188422661166
205,0.0034595698239406137
206,286698.2020638411
291,312714.3228069952
340,726.436514243724
341,4522392.472997014
417,18744.036887998802
442,18744.036887998802
688,16.24513067243682
11,37488.073775997604
2,2, 1, 2, 0,20, 0.00,60.00,Friday
7,-10.0
8,2.0
204,20.000000000070923
205,0.0034583245007173786
206,221719.0221613114
291,0.0
340,538.6552970108046
341,4542076.475232
417,18744.036887998802
442,18744.036887998802
688,15.604150488004171
11,37488.073775997604
2,2, 1, 2, 0,21, 0.00,60.00,Friday
7,-9.3125
8,2.0
204,20.000000000000004
205,0.003467042938136181
206,303845.5271620974
291,0.0
340,462.72239547043205
341,4438961.9893101705
417,18744.036887998802
442,18744.036887998802
688,15.707286544564658
11,37488.073775997604
2,2, 1, 2, 0,22, 0.00,60.00,Friday
7,-9.5875
8,1.375
204,20.0
205,0.0033978345512962515
206,351355.2495266554
291,0.0
340,428.37720752063905
341,4480330.831519306
417,18744.036887998802
442,18744.036887998802
688,15.66603998339658
11,37488.073775997604
2,2, 1, 2, 0,23, 0.00,60.00,Friday
7,-10.0
8,1.0
204,20.0
205,0.003361274443776734
206,391025.83127842704
291,0.0
340,412.8360306252712
341,4542385.6866506245
417,18744.036887998802
442,18744.036887998802
688,15.604161167615574
11,37488.073775997604
2,2, 1, 2, 0,24, 0.00,60.00,Friday
7,-9.25
8,1.0
204,20.0
205,0.0033678089976245016
206,408610.6536165047
291,0.0
340,405.8131251034789
341,4429382.629560343
417,18744.036887998802
442,18744.036887998802
688,15.71665086953362
11,37488.073775997604
2,3, 1, 3, 0, 1, 0.00,60.00,Saturday
7,-9.55
8,1.0
204,20.0
205,0.0033651997825193047
206,437472.63645022037
291,0.0
340,402.64012731784953
341,4474584.110403834
417,18744.036887998802
442,18744.036887998802
688,15.671644330895937
11,37488.073775997604
2,3, 1, 3, 0, 2, 0.00,60.00,Saturday
7,-10.0
8,1.0
204,20.0
205,0.003361274443776734
206,462945.8563648423
291,0.0
340,401.1968873259864
341,4542385.686650625
417,18744.036887998802
442,18744.036887998802
688,15.604135489609915
11,37488.073775997604
2,3, 1, 3, 0, 3, 0.00,60.00,Saturday
7,-9.6875
8,1.625
204,20.0
205,0.0034277081057781165
206,481289.35007272684
291,0.0
340,400.54285918782205
341,4495051.550952523
417,18744.036887998802
442,18744.036887998802
688,15.65100053022219
11,37488.073775997604
2,3, 1, 3, 0, 4, 0.00,60.00,Saturday
7,-10.4375
8,2.625
204,20.0
205,0.0035694245187956413
206,528093.1569143075
291,0.0
340,400.24657936670275
341,4608046.159025997
417,18744.036887998802
442,18744.036887998802
688,15.538494384329836
11,37488.073775997604
2,3, 1, 3, 0, 5, 0.00,60.00,Saturday
7,-11.0
8,2.375
204,20.0
205,0.003527322860341697
206,546307.7954295613
291,0.0
340,400.11171031721767
341,4692879.194115752
417,18744.036887998802
442,18744.036887998802
688,15.454109560253329
11,37488.073775997604
2,3, 1, 3, 0, 6, 0.00,60.00,Saturday
7,-10.3125
8,2.625
204,20.0
205,0.0035729456823440716
206,553456.5799470169
291,0.0
340,400.05067769038124
341,4589371.777197314
417,18744.036887998802
442,18744.036887998802
688,15.557222362192034
11,37488.073775997604
2,3, 1, 3, 0, 7, 0.00,60.00,Saturday
7,-10.5875
8,2.375
204,20.0
205,0.0035303693046053655
206,567262.9166509002
291,0.0
340,400.02301919779734
341,4630774.428396374
417,18744.036887998802
442,18744.036887998802
688,15.515965992495236
11,37488.073775997604
2,3, 1, 3, 0, 8, 0.00,60.00,Saturday
7,-11.625
8,2.0
204,20.0
205,0.0034797268424919467
206,594821.6150826974
291,0.0
340,400.0104542191316
341,4787490.160352006
417,18744.036887998802
442,18744.036887998802
688,15.360333108908733
11,37488.073775997604
2,3, 1, 3, 0, 9, 0.00,60.00,Saturday
7,-11.624999999999998
8,2.0
204,20.0
205,0.003494027245961823
206,604260.2566509263
291,0.0
340,400.0047556905264
341,4787779.335566215
417,18744.036887998802
442,18744.036887998802
688,15.360320040841955
11,37488.073775997604
2,3, 1, 3, 0,10, 0.00,60.00,Saturday
7,-11.15
8,3.25
204,20.0
205,0.00370489515314704
206,611160.3729628506
291,0.0
340,400.0021651640801
341,4716410.237480302
417,18744.036887998802
442,18744.036887998802
688,15.431560019298713
11,37488.073775997604
2,3, 1, 3, 0,11, 0.00,60.00,Saturday
7,-11.0
8,5.25
204,20.0
205,0.004244541994438191
206,690901.7520570671
291,0.0
340,400.00097759526363
341,4693918.420935286
417,18744.036887998802
442,18744.036887998802
688,15.45405515778781
11,37488.073775997604
2,3, 1, 3, 0,12, 0.00,60.00,Saturday
7,-10.5625
8,4.125
204,20.0
205,0.003925421686337371
206,671023.4671131351
291,0.0
340,400.00043988671825
341,4628220.102747491
417,18744.036887998802
442,18744.036887998802
688,15.519673998480501
11,37488.073775997604
2,3, 1, 3, 0,13, 0.00,60.00,Saturday
7,-9.4875
8,3.625
204,20.0
205,0.003757410430868856
206,649223.147350067
291,0.0
340,400.0001996850905
341,4465845.766484218
417,18744.036887998802
442,18744.036887998802
688,15.680917496177146
11,37488.073775997604
2,3, 1, 3, 0,14, 0.00,60.00,Saturday
7,-8.375
8,3.375
204,20.0
205,0.003675888468488741
206,633911.7221707526
291,0.0
340,400.00009030078525
341,4298012.137612737
417,18744.036887998802
442,18744.036887998802
688,15.84778912974769
11,37488.073775997604
2,3, 1, 3, 0,15, 0.00,60.00,Saturday
7,-7.375
8,3.625
204,20.0
205,0.003717367459625318
206,639406.9927463207
291,0.0
340,400.0000408268496
341,4147557.353522375
417,18744.036887998802
442,18744.036887998802
688,15.997785745632513
11,37488.073775997604
2,3, 1, 3, 0,16, 0.00,60.00,Saturday
7,-6.375
8,4.625
204,20.0
205,0.00396607999977658
206,671956.2939065562
291,0.0
340,400.0000184052384
341,3996378.3339214334
417,18744.036887998802
442,18744.036887998802
688,16.147785255376125
11,37488.073775997604
2,3, 1, 3, 0,17, 0.00,60.00,Saturday
7,-6.625
8,3.75
204,20.0
205,0.00374362084086404
206,672215.0518960126
291,0.0
340,400.00000828339336
341,4034285.839446188
417,18744.036887998802
442,18744.036887998802
688,16.11028688309768
11,37488.073775997604
2,3, 1, 3, 0,18, 0.00,60.00,Saturday
7,-6.6875
8,3.625
204,20.0
205,0.0037164535664828014
206,688044.7520054934
291,0.0
340,400.0000037484414
341,4044807.6770940367
417,18744.036887998802
442,18744.036887998802
688,16.100903693987117
11,37488.073775997604
2,3, 1, 3, 0,19, 0.00,60.00,Saturday
7,-6.8125
8,4.0
204,20.0
205,0.0038034565377521178
206,718206.0552085708
291,0.0
340,400.00000169687974
341,4063338.577627425
417,18744.036887998802
442,18744.036887998802
688,16.082148078410704
11,37488.073775997604
2,3, 1, 3, 0,20, 0.00,60.00,Saturday
7,-6.375
8,4.625
204,20.0
205,0.00396607999977658
206,746397.834289856
291,0.0
340,400.00000076640623
341,3996378.3339214334
417,18744.036887998802
442,18744.036887998802
688,16.14777046182865
11,37488.073775997604
2,3, 1, 3, 0,21, 0.00,60.00,Saturday
7,-6.0625
8,5.625
204,20.0
205,0.004296036789921962
206,795270.1075054859
291,0.0
340,400.000000344866
341,3949521.057472937
417,18744.036887998802
442,18744.036887998802
688,16.194642144380147
11,37488.073775997604
2,3, 1, 3, 0,22, 0.00,60.00,Saturday
7,-6.0375
8,6.0
204,20.0
205,0.0044284816116423684
206,826859.169558221
291,0.0
340,400.00000015482215
341,3945516.540153802
417,18744.036887998802
442,18744.036887998802
688,16.19839039583513
11,37488.073775997604
2,3, 1, 3, 0,23, 0.00,60.00,Saturday
7,-6.625
8,6.0
204,20.0
205,0.004432780098303787
206,857990.9189690424
291,0.0
340,400.00000006941974
341,4034285.8394461875
417,18744.036887998802
442,18744.036887998802
688,16.110263667627724
11,37488.073775997604
2,3, 1, 3, 0,24, 0.00,60.00,Saturday
7,-7.0625
8,5.375
204,20.0
205,0.004222868416909336
206,858898.249902102
291,0.0
340,400.000000031201
341,4100819.5405659927
417,18744.036887998802
442,18744.036887998802
688,16.04463075316032
11,37488.073775997604
2,4, 1, 4, 0, 1, 0.00,60.00,Sunday
7,-7.6625
8,4.375
204,20.0
205,0.003917656468884627
206,849313.6823754486
291,0.0
340,400.000000014107
341,4190975.6604589336
417,18744.036887998802
442,18744.036887998802
688,15.95462414438922
11,37488.073775997604
2,4, 1, 4, 0, 2, 0.00,60.00,Sunday
7,-8.0
8,4.0
204,20.0
205,0.003815600530982964
206,857671.9912906879
291,0.0
340,400.0000000063984
341,4241590.191249482
417,18744.036887998802
442,18744.036887998802
688,15.903991658291297
11,37488.073775997604
2,4, 1, 4, 0, 3, 0.00,60.00,Sunday
7,-7.75
8,4.625
204,20.000000000000004
205,0.003991444038407015
206,889464.969425004
291,0.0
340,400.0000000029021
341,4203962.971295492
417,18744.036887998802
442,18744.036887998802
688,15.94148265377751
11,37488.073775997604
2,4, 1, 4, 0, 4, 0.00,60.00,Sunday
7,-7.225
8,3.75
204,20.0
205,0.0037554630481978772
206,865427.8014189019
291,0.0
340,400.0000000013156
341,4124282.1608678643
417,18744.036887998802
442,18744.036887998802
688,16.02022740944615
11,37488.073775997604
2,4, 1, 4, 0, 5, 0.00,60.00,Sunday
7,-7.0
8,4.25
204,20.0
205,0.0038779484829456336
206,891658.912457092
291,0.0
340,400.0000000005979
341,4089407.202859289
417,18744.036887998802
442,18744.036887998802
688,16.05397731059439
11,37488.073775997604
2,4, 1, 4, 0, 6, 0.00,60.00,Sunday
7,-6.812499999999999
8,4.375
204,20.0
205,0.0039007989679626714
206,905676.6152730534
291,0.0
340,400.00000000027103
341,4061430.0009107757
417,18744.036887998802
442,18744.036887998802
688,16.0821001792775
11,37488.073775997604
2,4, 1, 4, 0, 7, 0.00,60.00,Sunday
7,-6.8875
8,4.0
204,20.0
205,0.0037988694335892837
206,908897.7099507439
291,0.0
340,400.0000000001231
341,4073687.513880063
417,18744.036887998802
442,18744.036887998802
688,16.070843314529547
11,37488.073775997604
2,4, 1, 4, 0, 8, 0.00,60.00,Sunday
7,-7.0
8,4.625
204,20.0
205,0.0039754441044861505
206,947158.5742840972
291,0.0
340,400.0000000000559
341,4090876.7844975386
417,18744.036887998802
442,18744.036887998802
688,16.053961183184445
11,37488.073775997604
2,4, 1, 4, 0, 9, 0.00,60.00,Sunday
7,-6.6875
8,5.0
204,20.0
205,0.004078864816969795
206,968154.5030078848
291,0.0
340,400.00000000002547
341,4043707.190198358
417,18744.036887998802
442,18744.036887998802
688,16.100829893116746
11,37488.073775997604
2,4, 1, 4, 0,10, 0.00,60.00,Sunday
7,-6.1875
8,6.25
204,20.0
205,0.004530741855268007
206,1018945.1286618952
291,0.0
340,400.00000000001177
341,3967354.861749689
417,18744.036887998802
442,18744.036887998802
688,16.175829241528316
11,37488.073775997604
2,4, 1, 4, 0,11, 0.00,60.00,Sunday
7,-6.625
8,5.75
204,20.0
205,0.004348644432109784
206,1016072.5906200904
291,0.0
340,400.00000000000546
341,4034626.5623219493
417,18744.036887998802
442,18744.036887998802
688,16.110202131406133
11,37488.073775997604
2,4, 1, 4, 0,12, 0.00,60.00,Sunday
7,-6.562500000000001
8,3.75
204,20.0
205,0.003736242267780936
206,956650.4813130674
291,0.0
340,400.0000000000027
341,4026284.927319764
417,18744.036887998802
442,18744.036887998802
688,16.11956498916758
11,37488.073775997604
2,4, 1, 4, 0,13, 0.00,60.00,Sunday
7,-6.1125
8,4.25
204,20.0
205,0.0038593733298268665
206,979058.752599353
291,0.0
340,400.0000000000013
341,3957944.683300335
417,18744.036887998802
442,18744.036887998802
688,16.187055967103866
11,37488.073775997604
2,4, 1, 4, 0,14, 0.00,60.00,Sunday
7,-6.0
8,4.375
204,20.0
205,0.0038882113965026245
206,996704.6675091216
291,0.0
340,400.00000000000057
341,3940692.858341063
417,18744.036887998802
442,18744.036887998802
688,16.20392673038358
11,37488.073775997604
2,4, 1, 4, 0,15, 0.00,60.00,Sunday
7,-5.375
8,4.625
204,20.0
205,0.003950583591634015
206,1010138.9336697913
291,0.0
340,400.00000000000057
341,3846008.192587713
417,18744.036887998802
442,18744.036887998802
688,16.297672396985973
11,37488.073775997604
2,4, 1, 4, 0,16, 0.00,60.00,Sunday
7,-5.0
8,4.375
204,20.0
205,0.003873426407307155
206,1016300.7521482406
291,0.0
340,400.0000000000005
341,3789850.220132456
417,18744.036887998802
442,18744.036887998802
688,16.35391770240057
11,37488.073775997604
2,4, 1, 4, 0,17, 0.00,60.00,Sunday
7,-5.0
8,3.375
204,20.0
205,0.0036270776234877894
206,1009599.520398035
291,0.0
340,400.0000000000002
341,3791025.4208279406
417,18744.036887998802
442,18744.036887998802
688,16.35390691896409
11,37488.073775997604
2,4, 1, 4, 0,18, 0.00,60.00,Sunday
7,-5.125
8,3.0
204,20.0
205,0.0035416606485943474
206,1018142.2336827298
291,0.0
340,400.0000000000001
341,3810545.7447001887
417,18744.036887998802
442,18744.036887998802
688,16.335144261086498
11,37488.073775997604
2,4, 1, 4, 0,19, 0.00,60.00,Sunday
7,-5.075
8,2.375
204,20.0
205,0.003440654653696431
206,1020732.8886211795
291,0.0
340,400.0000000000001
341,3802924.070351773
417,18744.036887998802
442,18744.036887998802
688,16.34263387932637
11,37488.073775997604
2,4, 1, 4, 0,20, 0.00,60.00,Sunday
7,-5.0
8,2.0
204,20.0
205,0.0033903086037415896
206,1028199.161799303
291,0.0
340,400.00000000000017
341,3791491.211136215
417,18744.036887998802
442,18744.036887998802
688,16.353875525979674
11,37488.073775997604
2,4, 1, 4, 0,21, 0.00,60.00,Sunday
7,-4.5
8,3.25
204,20.0
205,0.0035927280036406307
206,1056163.3208460193
291,0.0
340,400.0000000000001
341,3716786.2787152114
417,18744.036887998802
442,18744.036887998802
688,16.428863572550778
11,37488.073775997604
2,4, 1, 4, 0,22, 0.00,60.00,Sunday
7,-4.075
8,2.75
204,20.0
205,0.0034954937325911975
206,1051733.8778273265
291,0.0
340,400.0000000000002
341,3652678.907910941
417,18744.036887998802
442,18744.036887998802
688,16.49260537877291
11,37488.073775997604
2,4, 1, 4, 0,23, 0.00,60.00,Sunday
7,-4.0
8,2.0
204,20.0
205,0.0033769595194707716
206,1052085.5955884815
291,0.0
340,400.0000000000002
341,3641102.768720113
417,18744.036887998802
442,18744.036887998802
688,16.503850570210936
11,37488.073775997604
2,4, 1, 4, 0,24, 0.00,60.00,Sunday
7,-3.875
8,1.375
204,20.0
205,0.0033068729070297627
206,1055777.1784871172
291,0.0
340,400.00000000000017
341,3623140.4263792
417,18744.036887998802
442,18744.036887998802
688,16.52259062242443
11,37488.073775997604
2,5, 1, 5, 0, 1, 0.00,60.00,Monday
7,-4.55
8,3.5
204,20.0
205,0.003681170149472399
206,1122776.017157987
291,0.0
340,400.00000000000017
341,3725209.068021623
417,18744.036887998802
442,18744.036887998802
688,16.421334124100827
11,37488.073775997604
2,5, 1, 5, 0, 2, 0.00,60.00,Monday
7,-5.0
8,3.75
204,20.0
205,0.003718850118585771
206,1147918.6541987583
291,0.0
340,400.00000000000017
341,3791247.3257940095
417,18744.036887998802
442,18744.036887998802
688,16.353838927366336
11,37488.073775997604
2,5, 1, 5, 0, 3, 0.00,60.00,Monday
7,-5.0
8,3.0
204,20.0
205,0.003549563476159792
206,1142651.2220129827
291,0.0
340,400.00000000000017
341,3790249.251059026
417,18744.036887998802
442,18744.036887998802
688,16.353843427358882
11,37488.073775997604
2,5, 1, 5, 0, 4, 0.00,60.00,Monday
7,-5.625
8,3.625
204,20.0
205,0.0036915673760460387
206,1184528.1355196075
291,0.0
340,400.00000000000017
341,3885025.9120646846
417,18744.036887998802
442,18744.036887998802
688,16.260093165358334
11,37488.073775997604
2,5, 1, 5, 0, 5, 0.00,60.00,Monday
7,-6.0
8,3.375
204,20.0
205,0.003640952270052472
206,1201012.187518131
291,0.0
340,400.00000000000034
341,3941877.7685983386
417,18744.036887998802
442,18744.036887998802
688,16.203839839025246
11,37488.073775997604
2,5, 1, 5, 0, 6, 0.00,60.00,Monday
7,-6.749999999999999
8,3.0
204,20.0
205,0.003576073678217608
206,1221152.9238600708
291,0.0
340,400.0000000000003
341,4055162.076675951
417,18744.036887998802
442,18744.036887998802
688,16.09133606198322
11,37488.073775997604
2,5, 1, 5, 0, 7, 0.00,60.00,Monday
7,-7.7
8,3.0
204,20.0
205,0.0035876456876705294
206,1252083.0997453672
291,0.0
340,400.00000000000034
341,4198602.916623055
417,18744.036887998802
442,18744.036887998802
688,15.948831132062885
11,37488.073775997604
2,5, 1, 5, 0, 8, 0.00,60.00,Monday
7,-8.625
8,2.375
204,20.0
205,0.003493169690305246
206,1270292.6858886657
291,0.0
340,400.00000000000034
341,4337850.471390921
417,18744.036887998802
442,18744.036887998802
688,15.810076774699908
11,37488.073775997604
2,5, 1, 5, 0, 9, 0.00,60.00,Monday
7,-9.125
8,2.0
204,20.0
205,0.003452896992273623
206,1286852.6422903412
291,0.0
340,400.00000000000034
341,4412544.430321865
417,18744.036887998802
442,18744.036887998802
688,15.735073030079981
11,37488.073775997604
2,5, 1, 5, 0,10, 0.00,60.00,Monday
7,-9.7
8,2.0
204,21.261290069530688
205,0.003457508004811534
206,0.0
291,838256.7698612121
340,509.1890980415267
341,4659458.4973822255
417,18744.036887998802
442,18744.036887998802
688,16.548584352218953
11,6816288.073775997
2,5, 1, 5, 0,11, 0.00,60.00,Monday
7,-10.0
8,2.0
204,22.187657894127184
205,0.0034571533851687486
206,0.0
291,863624.0187052923
340,699.1379437342838
341,4866212.829722781
417,18744.036887998802
442,18744.036887998802
688,17.41298021342331
11,8346288.073775997
2,5, 1, 5, 0,12, 0.00,60.00,Monday
7,-9.8125
8,2.625
204,22.29310158041342
205,0.0035638001264506128
206,0.0
291,855266.7685735407
340,812.0511237377035
341,4858922.230576344
417,18744.036887998802
442,18744.036887998802
688,17.5634607772972
11,8346288.073775997
2,5, 1, 5, 0,13, 0.00,60.00,Monday
7,-9.8875
8,2.375
204,22.367341714735545
205,0.003519630278420924
206,0.0
291,858728.1865811757
340,859.7459253881477
341,4881284.321378877
417,18744.036887998802
442,18744.036887998802
688,17.61747670208269
11,8346288.073775997
2,5, 1, 5, 0,14, 0.00,60.00,Monday
7,-10.0
8,2.0
204,20.1989829859115
205,0.0034581198397477166
206,566371.7851033211
291,207395.90437623922
340,770.8060472432
341,4596850.038007535
417,18744.036887998802
442,18744.036887998802
688,15.909704562104928
11,256368.07377599765
2,5, 1, 5, 0,15, 0.00,60.00,Monday
7,-10.0
8,2.0
204,21.451350163748497
205,0.0034581198397477166
206,0.0
291,866299.6605256868
340,727.8827510520807
341,4729765.409506311
417,18744.036887998802
442,18744.036887998802
688,16.655886490658638
11,6816288.073775997
2,5, 1, 5, 0,16, 0.00,60.00,Monday
7,-10.0
8,2.0
204,22.383680413901494