Program Version,EnergyPlus, Version 25.2.0-cf7368216c, YMD=2026.04.19 20:11
1,5,Environment Title[],Latitude[deg],Longitude[deg],Time Zone[],Elevation[m]
2,8,Day of Simulation[],Month[],Day of Month[],DST Indicator[1=yes 0=no],Hour[],StartMinute[],EndMinute[],DayType
3,5,Cumulative Day of Simulation[],Month[],Day of Month[],DST Indicator[1=yes 0=no],DayType  ! When Daily Report Variables Requested
4,2,Cumulative Days of Simulation[],Month[]  ! When Monthly Report Variables Requested
5,1,Cumulative Days of Simulation[] ! When Run Period Report Variables Requested
6,1,Calendar Year of Simulation[] ! When Annual Report Variables Requested
7,1,Environment,Site Outdoor Air Drybulb Temperature [C] !Hourly
8,1,Environment,Site Wind Speed [m/s] !Hourly
204,1,MAINZONE,Zone Mean Air Temperature [C] !Hourly
205,1,MAINZONE,Zone Air System Sensible Heating Energy [J] !Hourly
290,1,MAINZONE,Zone Air System Sensible Cooling Energy [J] !Hourly
339,1,MAINZONE,Zone Air CO2 Concentration [ppm] !Hourly
340,1,LAB_HX,Heat Exchanger Sensible Heating Energy [J] !Hourly
416,1,SUPPLY_FAN,Fan Electricity Energy [J] !Hourly
441,1,EXHAUST_FAN,Fan Electricity Energy [J] !Hourly
687,1,ERV_SA_OUTLET,System Node Temperature [C] !Hourly
715,1,MAINZONE,Zone Mechanical Ventilation Air Changes per Hour [ach] !Hourly
11,1,Electricity:Facility [J] !Hourly
End of Data Dictionary
1,ANNUAL,  50.39,  30.54,   2.00, 178.60
2,1, 1, 1, 0, 1, 0.00,60.00,Thursday
7,-7.05
8,2.375
204,18.00000003122505
205,0.0
290,423803.9589032308
339,403.6309548734946
340,3797195.53599952
416,18744.036887998802
441,18744.036887998802
687,14.346942659424057
715,0.7617450139223251
11,37488.073775997604
2,1, 1, 1, 0, 2, 0.00,60.00,Thursday
7,-9.625
8,1.375
204,18.000000000000533
205,0.0
290,336686.8538596239
339,401.6103379088756
340,4185118.5445003575
416,18744.036887998802
441,18744.036887998802
687,13.960751120800328
715,0.7621530369510943
11,37488.073775997604
2,1, 1, 1, 0, 3, 0.00,60.00,Thursday
7,-9.0625
8,1.625
204,18.0
205,0.0
290,297099.28191628197
339,400.7177474770076
340,4099862.648727705
416,18744.036887998802
441,18744.036887998802
687,14.045153863341856
715,0.757147245170615
11,37488.073775997604
2,1, 1, 1, 0, 4, 0.00,60.00,Thursday
7,-10.0625
8,0.75
204,18.0
205,0.0
290,248397.58715241315
339,400.3212756896141
340,4250001.937589971
416,18744.036887998802
441,18744.036887998802
687,13.895177980426084
715,0.7589970191323576
11,37488.073775997604
2,1, 1, 1, 0, 5, 0.00,60.00,Thursday
7,-11.0
8,0.0
204,18.0
205,0.0
290,201609.56272736506
339,400.1437319592833
340,4391616.80485709
416,18744.036887998802
441,18744.036887998802
687,13.754559331664323
715,0.7619202973202209
11,37488.073775997604
2,1, 1, 1, 0, 6, 0.00,60.00,Thursday
7,-9.625
8,1.25
204,18.0
205,0.0
290,183611.75325447635
339,400.0643623992585
340,4184430.079608456
416,18744.036887998802
441,18744.036887998802
687,13.960801491987059
715,0.7579157270111521
11,37488.073775997604
2,1, 1, 1, 0, 7, 0.00,60.00,Thursday
7,-9.55
8,1.375
204,18.0
205,0.0
290,154988.45449648472
339,400.0288709520535
340,4172830.953317389
416,18744.036887998802
441,18744.036887998802
687,13.972050148721063
715,0.7595073763821387
11,37488.073775997604
2,1, 1, 1, 0, 8, 0.00,60.00,Thursday
7,-10.625
8,1.0
204,21.08640086730089
205,4344451.856611152
290,101571.60735832978
339,400.01662842908024
340,4795816.541459885
416,18744.036887998802
441,18744.036887998802
687,16.39911129211712
715,0.7714588759547709
11,37488.073775997604
2,1, 1, 1, 0, 9, 0.00,60.00,Thursday
7,-8.75
8,1.625
204,21.000000290579898
205,3451611.850186766
290,0.0
339,400.0087453306874
340,4507110.695272841
416,18744.036887998802
441,18744.036887998802
687,16.64138435899468
715,0.7721849255494542
11,37488.073775997604
2,1, 1, 1, 0,10, 0.00,60.00,Thursday
7,-9.025
8,1.375
204,21.522087915596437
205,340504.13475667196
290,639296.6518095377
339,535.6850846300881
340,4607251.5066399705
416,18744.036887998802
441,18744.036887998802
687,16.93022451525395
715,0.7739998357808368
11,6816288.073775997
2,1, 1, 1, 0,11, 0.00,60.00,Thursday
7,-8.125
8,1.625
204,21.88992756536753
205,0.0
290,800403.5619123033
339,746.8476389534909
340,4544077.143449588
416,18744.036887998802
441,18744.036887998802
687,17.47039021129323
715,0.7779741042523718
11,8346288.073775997
2,1, 1, 1, 0,12, 0.00,60.00,Thursday
7,-5.000000000000001
8,2.625
204,22.039292787318608
205,0.0
290,720437.0119423058
339,831.6360007226822
340,4093640.2934086286
416,18744.036887998802
441,18744.036887998802
687,18.059742948671484
715,0.7756504692297249
11,8346288.073775997
2,1, 1, 1, 0,13, 0.00,60.00,Thursday
7,-3.925
8,3.625
204,22.122904078762996
205,0.0
290,690395.3341156767
339,868.014472481006
340,3946841.597660824
416,18744.036887998802
441,18744.036887998802
687,18.308169362212517
715,0.7765174763731435
11,8346288.073775997
2,1, 1, 1, 0,14, 0.00,60.00,Thursday
7,-2.75
8,4.0
204,21.034257140218738
205,2578804.393402647
290,35447.62173990761
339,746.5932520402715
340,3616802.256219987
416,18744.036887998802
441,18744.036887998802
687,17.63088622339022
715,0.7741144025485422
11,256368.07377599765
2,1, 1, 1, 0,15, 0.00,60.00,Thursday
7,-0.8750000000000001
8,4.625
204,21.720602189373658
205,198479.28772349318
290,470298.86898166384
339,701.3360146275172
340,3405526.9213147564
416,18744.036887998802
441,18744.036887998802
687,18.30509904777978
715,0.7747673452414667
11,6816288.073775997
2,1, 1, 1, 0,16, 0.00,60.00,Thursday
7,-0.075
8,4.375
204,22.245697193151976
205,0.0
290,592675.0802330889
339,794.9124560968528
340,3384170.5497352513
416,18744.036887998802
441,18744.036887998802
687,18.97383542380746
715,0.7781275438523876
11,8346288.073775997
2,1, 1, 1, 0,17, 0.00,60.00,Thursday
7,-1.25
8,4.625
204,22.2860901005225
205,0.0
290,620570.5239384989
339,850.6621982956019
340,3570270.3152613156
416,18744.036887998802
441,18744.036887998802
687,18.859599151367718
715,0.7786179254494626
11,8346288.073775997
2,1, 1, 1, 0,18, 0.00,60.00,Thursday
7,-2.0625
8,3.75
204,22.317284044280292
205,0.0
290,645741.1072810655
339,873.8815381181913
340,3694502.363575608
416,18744.036887998802
441,18744.036887998802
687,18.75073796246689
715,0.7778966066708403
11,8346288.073775997
2,1, 1, 1, 0,19, 0.00,60.00,Thursday
7,-3.9125
8,3.0
204,21.044928964408758
205,2562272.347233239
290,54322.194114904414
339,734.9508403926125
340,3794396.3552178694
416,18744.036887998802
441,18744.036887998802
687,17.46215711993234
715,0.7738968809433798
11,37488.073775997604
2,1, 1, 1, 0,20, 0.00,60.00,Thursday
7,-5.625
8,2.375
204,18.746531350314143
205,0.0
290,601824.2266459537
339,584.9417438607029
340,3734774.0404979233
416,18744.036887998802
441,18744.036887998802
687,15.421636689574338
715,0.7660580040212908
11,37488.073775997604
2,1, 1, 1, 0,21, 0.00,60.00,Thursday
7,-5.0
8,2.625
204,18.100085242002407
205,0.0
290,602393.0425690699
339,499.6402811681767
340,3507284.9111639913
416,18744.036887998802
441,18744.036887998802
687,14.766427800261836
715,0.7651554964068941
11,37488.073775997604
2,1, 1, 1, 0,22, 0.00,60.00,Thursday
7,-4.15
8,3.0
204,18.018574161836177
205,0.0
290,576024.2693945768
339,442.9201158494098
340,3364068.7806953164
416,18744.036887998802
441,18744.036887998802
687,14.808954513247702
715,0.7640729438819854
11,37488.073775997604
2,1, 1, 1, 0,23, 0.00,60.00,Thursday
7,-4.0
8,2.375
204,18.00001031905581
205,0.0
290,519654.9433510855
339,418.8288282708987
340,3336512.334032811
416,18744.036887998802
441,18744.036887998802
687,14.80436599405548
715,0.7635825107864453
11,37488.073775997604
2,1, 1, 1, 0,24, 0.00,60.00,Thursday
7,-3.875
8,2.625
204,18.000000000152905
205,0.0
290,449997.00942436536
339,408.2857496410289
340,3318079.330286649
416,18744.036887998802
441,18744.036887998802
687,14.823076541558791
715,0.7619157667253553
11,37488.073775997604
2,2, 1, 2, 0, 1, 0.00,60.00,Friday
7,-3.925
8,3.625
204,18.0
205,0.0
290,374737.13982288574
339,403.65088128222345
340,3326187.407393339
416,18744.036887998802
441,18744.036887998802
687,14.815652578462673
715,0.7617477783677941
11,37488.073775997604
2,2, 1, 2, 0, 2, 0.00,60.00,Friday
7,-4.0
8,3.375
204,18.0
205,0.0
290,332389.62022501964
339,401.6074760029928
340,3337677.5379934376
416,18744.036887998802
441,18744.036887998802
687,14.80445724875636
715,0.7619268711917416
11,37488.073775997604
2,2, 1, 2, 0, 3, 0.00,60.00,Friday
7,-4.0
8,3.625
204,18.000000000000004
205,0.0
290,285874.45320106065
339,400.7097098614621
340,3337677.5379934376
416,18744.036887998802
441,18744.036887998802
687,14.804496344156421
715,0.7616616661765594
11,37488.073775997604
2,2, 1, 2, 0, 4, 0.00,60.00,Friday
7,-4.0
8,3.375
204,18.0
205,0.0
290,254658.6140510473
339,400.31339706981856
340,3338528.504208447
416,18744.036887998802
441,18744.036887998802
687,14.804517269156618
715,0.7615016732629276
11,37488.073775997604
2,2, 1, 2, 0, 5, 0.00,60.00,Friday
7,-4.0
8,4.875
204,18.0
205,0.0
290,181123.87895909575
339,400.1385128382889
340,3337443.731341138
416,18744.036887998802
441,18744.036887998802
687,14.804534993923658
715,0.7614233064725469
11,37488.073775997604
2,2, 1, 2, 0, 6, 0.00,60.00,Friday
7,-4.375
8,5.375
204,18.0
205,0.0
290,127226.82576251224
339,400.060871567856
340,3392074.4627636005
416,18744.036887998802
441,18744.036887998802
687,14.748301877424986
715,0.7593206587170724
11,37488.073775997604
2,2, 1, 2, 0, 7, 0.00,60.00,Friday
7,-6.1
8,5.0
204,18.0
205,0.0
290,72668.50824840773
339,400.02688635342327
340,3651448.7543721744
416,18744.036887998802
441,18744.036887998802
687,14.489564162395999
715,0.760256239569241
11,37488.073775997604
2,2, 1, 2, 0, 8, 0.00,60.00,Friday
7,-7.625
8,3.75
204,21.088849935759114
205,4402193.8398493705
290,87426.03653382338
339,400.0153742413487
340,4343679.43719209
416,18744.036887998802
441,18744.036887998802
687,16.852227739045897
715,0.771176644191527
11,37488.073775997604
2,2, 1, 2, 0, 9, 0.00,60.00,Friday
7,-7.562500000000001
8,4.25
204,21.00000029599907
205,3596848.1935532074
290,0.0
339,400.0080588084367
340,4327521.273669192
416,18744.036887998802
441,18744.036887998802
687,16.819515831862216
715,0.7718715702846513
11,37488.073775997604
2,2, 1, 2, 0,10, 0.00,60.00,Friday
7,-8.3625
8,4.375
204,21.45263013995078
205,387166.05625624297
290,619691.7443362757
339,520.3390666183492
340,4498647.426731934
416,18744.036887998802
441,18744.036887998802
687,16.98113921805892
715,0.7744212601588008
11,6816288.073775997
2,2, 1, 2, 0,11, 0.00,60.00,Friday
7,-9.0
8,4.625
204,21.768754891815036
205,0.0
290,818895.6094849189
339,719.4721286566402
340,4658419.4029242825
416,18744.036887998802
441,18744.036887998802
687,17.24646241737193
715,0.7775858543262286
11,8346288.073775997
2,2, 1, 2, 0,12, 0.00,60.00,Friday
7,-8.0
8,3.75
204,21.88700491882485
205,0.0
290,797844.3622081989
339,818.527247024959
340,4521825.5013317745
416,18744.036887998802
441,18744.036887998802
687,17.478329790028123
715,0.7733792677708186
11,8346288.073775997
2,2, 1, 2, 0,13, 0.00,60.00,Friday
7,-7.775
8,3.625
204,21.970860253024103
205,0.0
290,789993.2382668548
339,862.4897953917985
340,4503742.522866655
416,18744.036887998802
441,18744.036887998802
687,17.603741475301717
715,0.7749470849307093
11,8346288.073775997
2,2, 1, 2, 0,14, 0.00,60.00,Friday
7,-7.375
8,3.375
204,21.02412541057113
205,2761698.0717319767
290,42338.84508667814
339,744.2848129021409
340,4310252.440277869
416,18744.036887998802
441,18744.036887998802
687,16.92026861563913
715,0.7741976983429647
11,256368.07377599765
2,2, 1, 2, 0,15, 0.00,60.00,Friday
7,-6.4375
8,3.0
204,21.68250083052475
205,239905.15710835572
290,588025.2143517628
339,719.3766088126509
340,4232067.290131956
416,18744.036887998802
441,18744.036887998802
687,17.42059689772438
715,0.7719842075726561
11,6816288.073775997
2,2, 1, 2, 0,16, 0.00,60.00,Friday
7,-6.6625
8,2.375
204,22.060598186799815
205,0.0
290,760182.2506684688
339,823.5536399708878
340,4352011.398036748
416,18744.036887998802
441,18744.036887998802
687,17.86202673083647
715,0.7757863061822016
11,8346288.073775997
2,2, 1, 2, 0,17, 0.00,60.00,Friday
7,-8.25
8,2.0
204,22.09456652420629
205,0.0
290,805274.1932081033
339,864.6466082729821
340,4594731.025327649
416,18744.036887998802
441,18744.036887998802
687,17.645200384775855
715,0.7780927902726034
11,8346288.073775997
2,2, 1, 2, 0,18, 0.00,60.00,Friday
7,-8.375
8,2.0
204,22.128291752421752
205,0.0
290,811292.7524698013
339,882.911241002555
340,4615880.0616059005
416,18744.036887998802
441,18744.036887998802
687,17.643971082702585
715,0.7739485117056125
11,8346288.073775997
2,2, 1, 2, 0,19, 0.00,60.00,Friday
7,-9.25
8,2.0
204,21.03352655373303
205,2736250.576454617
290,43636.26596484058
339,742.340890954894
340,4595631.577903238
416,18744.036887998802
441,18744.036887998802
687,16.656078335416066
715,0.7719687078940559
11,37488.073775997604
2,2, 1, 2, 0,20, 0.00,60.00,Friday
7,-10.0
8,2.0
204,18.84415300960235
205,0.0
290,719193.4681380305
339,604.9016969942735
340,4411398.216331422
416,18744.036887998802
441,18744.036887998802
687,14.870197184150122
715,0.7655094992564312
11,37488.073775997604
2,2, 1, 2, 0,21, 0.00,60.00,Friday
7,-9.3125
8,2.0
204,18.00117823446189
205,0.0
290,561731.0139385837
339,519.0966940456652
340,4138995.506531948
416,18744.036887998802
441,18744.036887998802
687,14.023386031399077
715,0.7620554350455332
11,37488.073775997604
2,2, 1, 2, 0,22, 0.00,60.00,Friday
7,-9.5875
8,1.375
204,18.000000018040296
205,0.0
290,436040.4957790086
339,452.017984889075
340,4177477.7102832105
416,18744.036887998802
441,18744.036887998802
687,13.965979278308964
715,0.7625892604473793
11,37488.073775997604
2,2, 1, 2, 0,23, 0.00,60.00,Friday
7,-10.0
8,1.0
204,18.000000000000313
205,0.0
290,350246.86769873864
339,423.08620872267227
340,4239559.974207975
416,18744.036887998802
441,18744.036887998802
687,13.904220428849444
715,0.7642263449277219
11,37488.073775997604
2,2, 1, 2, 0,24, 0.00,60.00,Friday
7,-9.25
8,1.0
204,18.0
205,0.0
290,296484.2788994342
339,410.26865056096847
340,4126518.660248374
416,18744.036887998802
441,18744.036887998802
687,14.016803669503279
715,0.759903957160243
11,37488.073775997604
2,3, 1, 3, 0, 1, 0.00,60.00,Saturday
7,-9.55
8,1.0
204,18.0
205,0.0
290,236329.72080572098
339,404.58866767455356
340,4171735.5838712417
416,18744.036887998802
441,18744.036887998802
687,13.971868291730859
715,0.7609550910040024
11,37488.073775997604
2,3, 1, 3, 0, 2, 0.00,60.00,Saturday
7,-10.0
8,1.0
204,18.0
205,0.0
290,182013.9085309746
339,402.0490402551401
340,4239559.974207249
416,18744.036887998802
441,18744.036887998802
687,13.904411941953539
715,0.7629114865173188
11,37488.073775997604
2,3, 1, 3, 0, 3, 0.00,60.00,Saturday
7,-9.6875
8,1.625
204,18.0
205,0.0
290,135580.3196515799
339,400.9164169857772
340,4192227.028314788
416,18744.036887998802
441,18744.036887998802
687,13.95131391989966
715,0.7594074093862677
11,37488.073775997604
2,3, 1, 3, 0, 4, 0.00,60.00,Saturday
7,-10.4375
8,2.625
204,18.0
205,0.0
290,64393.35399330446
339,400.4108984259552
340,4305258.512666632
416,18744.036887998802
441,18744.036887998802
687,13.838831723902853
715,0.7606798871170538
11,37488.073775997604
2,3, 1, 3, 0, 5, 0.00,60.00,Saturday
7,-11.0
8,2.375
204,18.0
205,0.0
290,24699.160435911028
339,400.1838547857473
340,4390112.794495381
416,18744.036887998802
441,18744.036887998802
687,13.754459472725983
715,0.762706546764954
11,37488.073775997604
2,3, 1, 3, 0, 6, 0.00,60.00,Saturday
7,-10.3125
8,2.625
204,18.0
205,3745.513479028807
290,4191.4446903353455
339,400.08242826336647
340,4286567.691600824
416,18744.036887998802
441,18744.036887998802
687,13.857578153906513
715,0.759584044141852
11,37488.073775997604
2,3, 1, 3, 0, 7, 0.00,60.00,Saturday
7,-10.5875
8,2.375
204,18.0
205,28511.66692497785
290,0.0
339,400.03702300321163
340,4327985.575492108
416,18744.036887998802
441,18744.036887998802
687,13.816323283734773
715,0.7608936594542342
11,37488.073775997604
2,3, 1, 3, 0, 8, 0.00,60.00,Saturday
7,-11.625
8,2.0
204,18.0
205,69436.03369626959
290,0.0
339,400.01663082419554
340,4484723.979987098
416,18744.036887998802
441,18744.036887998802
687,13.660688254580853
715,0.7629317522087096
11,37488.073775997604
2,3, 1, 3, 0, 9, 0.00,60.00,Saturday
7,-11.624999999999998
8,2.0
204,18.0
205,88595.99582640859
290,0.0
339,400.00748497438167
340,4484994.825790504
416,18744.036887998802
441,18744.036887998802
687,13.66066958219941
715,0.7599041563660967
11,37488.073775997604
2,3, 1, 3, 0,10, 0.00,60.00,Saturday
7,-11.15
8,3.25
204,18.0
205,95920.25441223763
290,0.0
339,400.00337224292997
340,4413590.922948705
416,18744.036887998802
441,18744.036887998802
687,13.731903376663025
715,0.7612302891720379
11,37488.073775997604
2,3, 1, 3, 0,11, 0.00,60.00,Saturday
7,-11.0
8,5.25
204,18.0
205,177670.14618784122
290,0.0
339,400.0015063429895
340,4391084.974423333
416,18744.036887998802
441,18744.036887998802
687,13.75439135779096
715,0.7632077512955328
11,37488.073775997604
2,3, 1, 3, 0,12, 0.00,60.00,Saturday
7,-10.5625
8,4.125
204,18.0
205,171868.18386680773
290,0.0
339,400.0006705259396
340,4325350.789109645
416,18744.036887998802
441,18744.036887998802
687,13.82000019695355
715,0.7599840240344884
11,37488.073775997604
2,3, 1, 3, 0,13, 0.00,60.00,Saturday
7,-9.4875
8,3.625
204,18.0
205,160378.85437341957
290,0.0
339,400.0003013147274
340,4162948.189741942
416,18744.036887998802
441,18744.036887998802
687,13.98123694417395
715,0.7613105203302036
11,37488.073775997604
2,3, 1, 3, 0,14, 0.00,60.00,Saturday
7,-8.375
8,3.375
204,18.0
205,152169.29988424928
290,0.0
339,400.00013490340217
340,3995068.354307968
416,18744.036887998802
441,18744.036887998802
687,14.148103363851662
715,0.7632571574692254
11,37488.073775997604
2,3, 1, 3, 0,15, 0.00,60.00,Saturday
7,-7.375
8,3.625
204,18.0
205,162425.48988886352
290,0.0
339,400.0000603963829
340,3844539.2439789106
416,18744.036887998802
441,18744.036887998802
687,14.298096450346462
715,0.7632142682915555
11,37488.073775997604
2,3, 1, 3, 0,16, 0.00,60.00,Saturday
7,-6.375
8,4.625
204,18.0
205,196889.07478697927
290,0.0
339,400.0000269627613
340,3693335.454543264
416,18744.036887998802
441,18744.036887998802
687,14.448092488420137
715,0.7631707601675968
11,37488.073775997604
2,3, 1, 3, 0,17, 0.00,60.00,Saturday
7,-6.625
8,3.75
204,18.0
205,202121.48373958495
290,0.0
339,400.00001201662565
340,3731240.914478791
416,18744.036887998802
441,18744.036887998802
687,14.410590336579833
715,0.7632068664923713
11,37488.073775997604
2,3, 1, 3, 0,18, 0.00,60.00,Saturday
7,-6.6875
8,3.625
204,18.0
205,220181.23415876649
290,0.0
339,400.0000053858985
340,3741683.7342994506
416,18744.036887998802
441,18744.036887998802
687,14.401204298600133
715,0.7613234400332769
11,37488.073775997604
2,3, 1, 3, 0,19, 0.00,60.00,Saturday
7,-6.8125
8,4.0
204,18.0
205,250816.9337651487
290,0.0
339,400.00000241491074
340,3760245.54471201
416,18744.036887998802
441,18744.036887998802
687,14.382445200366883
715,0.7621910514429908
11,37488.073775997604
2,3, 1, 3, 0,20, 0.00,60.00,Saturday
7,-6.375
8,4.625
204,18.0
205,278214.4824574145
290,0.0
339,400.0000010801698
340,3693335.4545432637
416,18744.036887998802
441,18744.036887998802
687,14.448063371277367
715,0.7633978347148285
11,37488.073775997604
2,3, 1, 3, 0,21, 0.00,60.00,Saturday
7,-6.0625
8,5.625
204,18.0
205,324269.01318695943
290,0.0
339,400.0000004812789
340,3646440.32469256
416,18744.036887998802
441,18744.036887998802
687,14.49493049493798
715,0.7618482054849978
11,37488.073775997604
2,3, 1, 3, 0,22, 0.00,60.00,Saturday
7,-6.0375
8,6.0
204,18.0
205,354284.45962344995
290,0.0
339,400.00000021390036
340,3642452.39958125
416,18744.036887998802
441,18744.036887998802
687,14.49867337127916
715,0.7625373281588749
11,37488.073775997604
2,3, 1, 3, 0,23, 0.00,60.00,Saturday
7,-6.625
8,6.0
204,18.0
205,384443.23227006115
290,0.0
339,400.00000009493414
340,3731240.914478792
416,18744.036887998802
441,18744.036887998802
687,14.410541638783592
715,0.7635813011453083
11,37488.073775997604
2,3, 1, 3, 0,24, 0.00,60.00,Saturday
7,-7.0625
8,5.375
204,18.0
205,385771.62021495594
290,0.0
339,400.0000000422306
340,3797756.6717284857
416,18744.036887998802
441,18744.036887998802
687,14.344903948251153
715,0.7623180865183031
11,37488.073775997604
2,4, 1, 4, 0, 1, 0.00,60.00,Sunday
7,-7.6625
8,4.375
204,18.0
205,376985.3566392439
290,0.0
339,400.00000001889987
340,3887967.676248612
416,18744.036887998802
441,18744.036887998802
687,14.254894014789311
715,0.7630020586565742
11,37488.073775997604
2,4, 1, 4, 0, 2, 0.00,60.00,Sunday
7,-8.0
8,4.0
204,18.0
205,383864.99281173997
290,0.0
339,400.0000000084851
340,3938619.46330309
416,18744.036887998802
441,18744.036887998802
687,14.204259092473116
715,0.7639404385649424
11,37488.073775997604
2,4, 1, 4, 0, 3, 0.00,60.00,Sunday
7,-7.75
8,4.625
204,18.0
205,411202.17522770585
290,0.0
339,400.000000003809
340,3900974.617041111
416,18744.036887998802
441,18744.036887998802
687,14.24174767729426
715,0.7631302130717907
11,37488.073775997604
2,4, 1, 4, 0, 4, 0.00,60.00,Sunday
7,-7.225
8,3.75
204,18.0
205,385832.27754038235
290,0.0
339,400.0000000017085
340,3821304.6537460675
416,18744.036887998802
441,18744.036887998802
687,14.320489966440904
715,0.7634998756131595
11,37488.073775997604
2,4, 1, 4, 0, 5, 0.00,60.00,Sunday
7,-7.0
8,4.25
204,18.0
205,406905.24588735844
290,0.0
339,400.0000000007682
340,3786488.1507956386
416,18744.036887998802
441,18744.036887998802
687,14.354239471948956
715,0.7640277250567564
11,37488.073775997604
2,4, 1, 4, 0, 6, 0.00,60.00,Sunday
7,-6.812499999999999
8,4.375
204,18.0
205,415948.05818825203
290,0.0
339,400.0000000003441
340,3758479.428760431
416,18744.036887998802
441,18744.036887998802
687,14.382361333544193
715,0.7642383723370141
11,37488.073775997604
2,4, 1, 4, 0, 7, 0.00,60.00,Sunday
7,-6.8875
8,4.0
204,18.0
205,414544.27584910474
290,0.0
339,400.00000000015444
340,3770670.354107217
416,18744.036887998802
441,18744.036887998802
687,14.371104415952914
715,0.7641918694990825
11,37488.073775997604
2,4, 1, 4, 0, 8, 0.00,60.00,Sunday
7,-7.0
8,4.625
204,18.0
205,444783.2705917171
290,0.0
339,400.00000000006946
340,3787848.874534758
416,18744.036887998802
441,18744.036887998802
687,14.354222344859835
715,0.7641244585543496
11,37488.073775997604
2,4, 1, 4, 0, 9, 0.00,60.00,Sunday
7,-6.6875
8,5.0
204,18.0
205,457455.85433848575
290,0.0
339,400.00000000003115
340,3740665.8598102736
416,18744.036887998802
441,18744.036887998802
687,14.401090272135944
715,0.7649753410411113
11,37488.073775997604
2,4, 1, 4, 0,10, 0.00,60.00,Sunday
7,-6.1875
8,6.25
204,18.0
205,497378.55549456464
290,0.0
339,400.00000000001404
340,3664358.9239256014
416,18744.036887998802
441,18744.036887998802
687,14.476089071969945
715,0.7646305626024686
11,37488.073775997604
2,4, 1, 4, 0,11, 0.00,60.00,Sunday
7,-6.625
8,5.75
204,18.0
205,489626.6657678809
290,0.0
339,400.0000000000064
340,3731556.50704997
416,18744.036887998802
441,18744.036887998802
687,14.410460563497285
715,0.7641679409637308
11,37488.073775997604
2,4, 1, 4, 0,12, 0.00,60.00,Sunday
7,-6.562500000000001
8,3.75
204,18.0
205,428582.02607041184
290,0.0
339,400.0000000000032
340,3723129.2743429663
416,18744.036887998802
441,18744.036887998802
687,14.419824273788668
715,0.7653812120710988
11,37488.073775997604
2,4, 1, 4, 0,13, 0.00,60.00,Sunday
7,-6.1125
8,4.25
204,18.0
205,442470.9481255644
290,0.0
339,400.00000000000176
340,3654799.124169689
416,18744.036887998802
441,18744.036887998802
687,14.487318238309067
715,0.764932077997646
11,37488.073775997604
2,4, 1, 4, 0,14, 0.00,60.00,Sunday
7,-6.0
8,4.375
204,18.0
205,452715.23382262327
290,0.0
339,400.0000000000009
340,3637562.6384686735
416,18744.036887998802
441,18744.036887998802
687,14.504190635821763
715,0.764253569070571
11,37488.073775997604
2,4, 1, 4, 0,15, 0.00,60.00,Sunday
7,-5.375
8,4.625
204,18.0
205,458623.8950136027
290,0.0
339,400.00000000000034
340,3542874.5305130677
416,18744.036887998802
441,18744.036887998802
687,14.597938070985286
715,0.7642239961346142
11,37488.073775997604
2,4, 1, 4, 0,16, 0.00,60.00,Sunday
7,-5.0
8,4.375
204,18.0
205,458298.65563613863
290,0.0
339,400.00000000000034
340,3486662.20252186
416,18744.036887998802
441,18744.036887998802
687,14.654185150567807
715,0.7642006330621046
11,37488.073775997604
2,4, 1, 4, 0,17, 0.00,60.00,Sunday
7,-5.0
8,3.375
204,18.0
205,446698.1398834354
290,0.0
339,400.00000000000034
340,3487743.3871617056
416,18744.036887998802
441,18744.036887998802
687,14.654176830281754
715,0.7642365603228652
11,37488.073775997604
2,4, 1, 4, 0,18, 0.00,60.00,Sunday
7,-5.125
8,3.0
204,18.0
205,449852.3477871432
290,0.0
339,400.0000000000003
340,3507218.7278423444
416,18744.036887998802
441,18744.036887998802
687,14.63541685829964
715,0.7661265743555598
11,37488.073775997604
2,4, 1, 4, 0,19, 0.00,60.00,Sunday
7,-5.075
8,2.375
204,18.0
205,447667.08170419803
290,0.0
339,400.0
340,3499600.124281717
416,18744.036887998802
441,18744.036887998802
687,14.64290837240792
715,0.7654573579868871
11,37488.073775997604
2,4, 1, 4, 0,20, 0.00,60.00,Sunday
7,-5.0
8,2.0
204,18.0
205,450902.9284386166
290,0.0
339,400.0000000000001
340,3488171.914245317
416,18744.036887998802
441,18744.036887998802
687,14.65415166394434
715,0.7644105007525422
11,37488.073775997604
2,4, 1, 4, 0,21, 0.00,60.00,Sunday
7,-4.5
8,3.25
204,18.0
205,473028.34435989894
290,0.0
339,400.0000000000001
340,3413374.768336242
416,18744.036887998802
441,18744.036887998802
687,14.7291406607261
715,0.7660109322777499
11,37488.073775997604
2,4, 1, 4, 0,22, 0.00,60.00,Sunday
7,-4.075
8,2.75
204,18.0
205,465987.5121866252
290,0.0
339,400.00000000000017
340,3349237.282382975
416,18744.036887998802
441,18744.036887998802
687,14.792882418029238
715,0.7653993045062213
11,37488.073775997604
2,4, 1, 4, 0,23, 0.00,60.00,Sunday
7,-4.0
8,2.0
204,18.0
205,464247.0739035058
290,0.0
339,400.0000000000003
340,3337677.5379934376
416,18744.036887998802
441,18744.036887998802
687,14.804128330335633
715,0.7644798959243881
11,37488.073775997604
2,4, 1, 4, 0,24, 0.00,60.00,Sunday
7,-3.875
8,1.375
204,18.0
205,465699.2643624819
290,0.0
339,400.0000000000003
340,3319631.191990835
416,18744.036887998802
441,18744.036887998802
687,14.822869026072876
715,0.7653868150037817
11,37488.073775997604
2,5, 1, 5, 0, 1, 0.00,60.00,Monday
7,-4.55
8,3.5
204,18.0
205,526547.6378792746
290,0.0
339,400.00000000000017
340,3421729.2331252666
416,18744.036887998802
441,18744.036887998802
687,14.72161255532891
715,0.7651432479837056
11,37488.073775997604
2,5, 1, 5, 0, 2, 0.00,60.00,Monday
7,-5.0
8,3.75
204,18.0
205,548799.0806515827
290,0.0
339,400.0000000000001
340,3487947.5397304897
416,18744.036887998802
441,18744.036887998802
687,14.654114000900014
715,0.764696503901979
11,37488.073775997604
2,5, 1, 5, 0, 3, 0.00,60.00,Monday
7,-5.0
8,3.0
204,18.0
205,542685.2652471887
290,0.0
339,400.0000000000001
340,3487029.310974304
416,18744.036887998802
441,18744.036887998802
687,14.65411621702549
715,0.7647040282605269
11,37488.073775997604
2,5, 1, 5, 0, 4, 0.00,60.00,Monday
7,-5.625
8,3.625
204,18.0
205,581004.4027056675
290,0.0
339,400.00000000000017
340,3581804.3783369525
416,18744.036887998802
441,18744.036887998802
687,14.560364504785182
715,0.7647670543353086
11,37488.073775997604
2,5, 1, 5, 0, 5, 0.00,60.00,Monday
7,-6.0
8,3.375
204,18.0
205,595781.4938705722
290,0.0
339,400.00000000000017
340,3638656.4017830817
416,18744.036887998802
441,18744.036887998802
687,14.504108600200158
715,0.7648427254536163
11,37488.073775997604
2,5, 1, 5, 0, 6, 0.00,60.00,Monday
7,-6.749999999999999
8,3.0
204,18.0
205,614438.7463702953
290,0.0
339,400.00000000000017
340,3751972.2101306478
416,18744.036887998802
441,18744.036887998802
687,14.39160260263573
715,0.7642185160688327
11,37488.073775997604
2,5, 1, 5, 0, 7, 0.00,60.00,Monday
7,-7.7
8,3.0
204,18.0
205,643453.9833645851
290,0.0
339,400.0000000000003
340,3895454.610591797
416,18744.036887998802
441,18744.036887998802
687,14.24909480497492
715,0.7646478954758106
11,37488.073775997604
2,5, 1, 5, 0, 8, 0.00,60.00,Monday
7,-8.625
8,2.375
204,21.090195905931672
205,5642714.336722195
290,90927.50066253475
339,400.00000000000034
340,4497108.428676181
416,18744.036887998802
441,18744.036887998802
687,16.703396570281264
715,0.7734740077412146
11,37488.073775997604
2,5, 1, 5, 0, 9, 0.00,60.00,Monday
7,-9.125
8,2.0
204,21.000000547077452
205,5153563.665220839
290,0.0
339,400.00000000000034
340,4564048.899382424
416,18744.036887998802
441,18744.036887998802
687,16.58484486925706
715,0.7755751455668971
11,37488.073775997604
2,5, 1, 5, 0,10, 0.00,60.00,Monday
7,-9.7
8,2.0
204,21.000000000054435
205,767517.2473343108
290,420345.7737941638
339,553.6758748712369
340,4650594.35951835
416,18744.036887998802
441,18744.036887998802
687,16.49846964315837
715,0.7768641709622928
11,6816288.073775997
2,5, 1, 5, 0,11, 0.00,60.00,Monday
7,-10.0
8,2.0
204,21.000000000000004
205,0.0
290,754752.6402269076
339,749.6786464688415
340,4695307.95580831
416,18744.036887998802
441,18744.036887998802
687,16.453533473036497
715,0.7773140217581318
11,8346288.073775997
2,5, 1, 5, 0,12, 0.00,60.00,Monday
7,-9.8125
8,2.625
204,21.03400828841141
205,0.0
290,822616.0203176354
339,832.9467151670362
340,4669221.42280294
416,18744.036887998802
441,18744.036887998802
687,16.49844792196807
715,0.7739530371476824
11,8346288.073775997
2,5, 1, 5, 0,13, 0.00,60.00,Monday
7,-9.8875
8,2.375
204,21.097920354271714
205,0.0
290,825912.6682188886
339,869.3885041091772
340,4689398.327189984
416,18744.036887998802
441,18744.036887998802
687,16.54012088729712
715,0.7746609369340215
11,8346288.073775997
2,5, 1, 5, 0,14, 0.00,60.00,Monday
7,-10.0
8,2.0
204,21.003337468135875
205,4232340.84940372
290,0.0
339,755.9472835931083
340,4698916.023151396
416,18744.036887998802
441,18744.036887998802
687,16.482416912327714
715,0.7766619935456555
11,256368.07377599765
2,5, 1, 5, 0,15, 0.00,60.00,Monday
7,-10.0
8,2.0
204,21.077968212205732
205,624513.4529793581
290,626452.3218196842
339,733.2725966436158
340,4700332.68314874
416,18744.036887998802
441,18744.036887998802
687,16.49023907602004
715,0.777519812247101
11,6816288.073775997
2,5, 1, 5, 0,16, 0.00,60.00,Monday
7,-10.0
8,2.0
204,21.17158079761025
205,0.0