Program Version,EnergyPlus, Version 25.2.0-cf7368216c, YMD=2026.04.06 11:27
1,5,Environment Title[],Latitude[deg],Longitude[deg],Time Zone[],Elevation[m]
2,8,Day of Simulation[],Month[],Day of Month[],DST Indicator[1=yes 0=no],Hour[],StartMinute[],EndMinute[],DayType
3,5,Cumulative Day of Simulation[],Month[],Day of Month[],DST Indicator[1=yes 0=no],DayType  ! When Daily Report Variables Requested
4,2,Cumulative Days of Simulation[],Month[]  ! When Monthly Report Variables Requested
5,1,Cumulative Days of Simulation[] ! When Run Period Report Variables Requested
6,1,Calendar Year of Simulation[] ! When Annual Report Variables Requested
7,1,Environment,Site Outdoor Air Drybulb Temperature [C] !Hourly
8,1,Environment,Site Wind Speed [m/s] !Hourly
204,1,MAINZONE,Zone Mean Air Temperature [C] !Hourly
339,1,MAINZONE,Zone Air CO2 Concentration [ppm] !Hourly
340,1,LAB_HX,Heat Exchanger Sensible Heating Energy [J] !Hourly
416,1,SUPPLY_FAN,Fan Electricity Energy [J] !Hourly
441,1,EXHAUST_FAN,Fan Electricity Energy [J] !Hourly
627,1,ERV_SA_OUTLET,System Node Temperature [C] !Hourly
11,1,Electricity:Facility [J] !Hourly
End of Data Dictionary
1,ANNUAL,  50.39,  30.54,   2.00, 178.60
2,1, 1, 1, 0, 1, 0.00,60.00,Thursday
7,-7.05
8,2.375
204,4.63533039523989
339,403.97559856167896
340,1776587.7084588094
416,18751.537502999996
441,18751.537502999996
627,3.0173933575874186
11,9037503.075006
2,1, 1, 1, 0, 2, 0.00,60.00,Thursday
7,-9.625
8,1.375
204,4.530927899039536
339,401.8215858993174
340,2147212.592572361
416,18751.537502999996
441,18751.537502999996
627,2.5274011878527847
11,9037503.075006
2,1, 1, 1, 0, 3, 0.00,60.00,Thursday
7,-9.0625
8,1.625
204,4.489935952370611
339,400.8366149355117
340,2054169.518439283
416,18751.537502999996
441,18751.537502999996
627,2.5679884453218733
11,9037503.075006
2,1, 1, 1, 0, 4, 0.00,60.00,Thursday
7,-10.0625
8,0.75
204,4.420600973704487
339,400.3855975274991
340,2197385.5709134713
416,18751.537502999996
441,18751.537502999996
627,2.375516431157121
11,9037503.075006
2,1, 1, 1, 0, 5, 0.00,60.00,Thursday
7,-11.0
8,0.0
204,4.320760051312339
339,400.17720615294473
340,2323457.8883852265
416,18751.537502999996
441,18751.537502999996
627,2.1466613620886457
11,9037503.075006
2,1, 1, 1, 0, 6, 0.00,60.00,Thursday
7,-9.625
8,1.25
204,4.246173510977123
339,400.0814690191437
340,2103608.9603974004
416,18751.537502999996
441,18751.537502999996
627,2.284759177182563
11,9037503.075006
2,1, 1, 1, 0, 7, 0.00,60.00,Thursday
7,-9.55
8,1.375
204,4.140556587216675
339,400.03754876927485
340,2078752.7478235236
416,18751.537502999996
441,18751.537502999996
627,2.220937644415616
11,9037503.075006
2,1, 1, 1, 0, 8, 0.00,60.00,Thursday
7,-10.625
8,1.0
204,3.991397433402234
339,400.0172632952884
340,2219139.4727788074
416,18751.537502999996
441,18751.537502999996
627,1.9366759761391923
11,9037503.075006
2,1, 1, 1, 0, 9, 0.00,60.00,Thursday
7,-8.75
8,1.625
204,3.885953774609616
339,400.00793985750903
340,1916568.8420909927
416,18751.537502999996
441,18751.537502999996
627,2.108391568450882
11,9037503.075006
2,1, 1, 1, 0,10, 0.00,60.00,Thursday
7,-9.025
8,1.375
204,5.634398609867295
339,520.2894397740695
340,2194798.8028498134
416,18751.537502999996
441,18751.537502999996
627,3.395414492874038
11,15546303.075006
2,1, 1, 1, 0,11, 0.00,60.00,Thursday
7,-8.125
8,1.625
204,5.886430308761696
339,729.6823145386929
340,2120791.8312345403
416,18751.537502999996
441,18751.537502999996
627,3.8776259488354192
11,15546303.075006
2,1, 1, 1, 0,12, 0.00,60.00,Thursday
7,-5.000000000000001
8,2.625
204,5.908681868598403
339,840.2132754321174
340,1652229.8054211868
416,18751.537502999996
441,18751.537502999996
627,4.370427420750045
11,15546303.075006
2,1, 1, 1, 0,13, 0.00,60.00,Thursday
7,-3.925
8,3.625
204,4.473304299728881
339,783.4343692530357
340,1298899.3800529335
416,18751.537502999996
441,18751.537502999996
627,3.462932934278508
11,10339263.075006
2,1, 1, 1, 0,14, 0.00,60.00,Thursday
7,-2.75
8,4.0
204,5.679170146741125
339,780.3649118704307
340,1248602.2368870282
416,18751.537502999996
441,18751.537502999996
627,4.355285608025156
11,15546303.075006
2,1, 1, 1, 0,15, 0.00,60.00,Thursday
7,-0.8750000000000001
8,4.625
204,6.000773679799993
339,856.8590130671935
340,1035320.4648917567
416,18751.537502999996
441,18751.537502999996
627,5.029748463453004
11,15546303.075006
2,1, 1, 1, 0,16, 0.00,60.00,Thursday
7,-0.075
8,4.375
204,6.17752346112275
339,895.1307619202281
340,941055.3208349107
416,18751.537502999996
441,18751.537502999996
627,5.298297527314158
11,15546303.075006
2,1, 1, 1, 0,17, 0.00,60.00,Thursday
7,-1.25
8,4.625
204,6.349403967170889
339,912.3053603005388
340,1146063.2083049775
416,18751.537502999996
441,18751.537502999996
627,5.277179545555131
11,15546303.075006
2,1, 1, 1, 0,18, 0.00,60.00,Thursday
7,-2.0625
8,3.75
204,6.537903357681779
339,919.7383969498268
340,1296339.3774688945
416,18751.537502999996
441,18751.537502999996
627,5.3092166469568545
11,15546303.075006
2,1, 1, 1, 0,19, 0.00,60.00,Thursday
7,-3.9125
8,3.0
204,4.870641182528951
339,804.1384901616825
340,1362434.5217464373
416,18751.537502999996
441,18751.537502999996
627,3.830253564048842
11,9037503.075006
2,1, 1, 1, 0,20, 0.00,60.00,Thursday
7,-5.625
8,2.375
204,4.5798361338849185
339,598.8925615509902
340,1548021.9949354231
416,18751.537502999996
441,18751.537502999996
627,3.1607261027345865
11,9037503.075006
2,1, 1, 1, 0,21, 0.00,60.00,Thursday
7,-5.0
8,2.625
204,4.59816464201533
339,490.54226149970754
340,1453868.181005239
416,18751.537502999996
441,18751.537502999996
627,3.2558051818792917
11,9037503.075006
2,1, 1, 1, 0,22, 0.00,60.00,Thursday
7,-4.15
8,3.0
204,4.618500487009837
339,441.4886246970371
340,1329389.5775583743
416,18751.537502999996
441,18751.537502999996
627,3.406047860487855
11,9037503.075006
2,1, 1, 1, 0,23, 0.00,60.00,Thursday
7,-4.0
8,2.375
204,4.608199849518755
339,418.9895367999195
340,1306045.696646857
416,18751.537502999996
441,18751.537502999996
627,3.4251002350735877
11,9037503.075006
2,1, 1, 1, 0,24, 0.00,60.00,Thursday
7,-3.875
8,2.625
204,4.5802672811540575
339,408.70585041798523
340,1283372.1522623906
416,18751.537502999996
441,18751.537502999996
627,3.42182817738583
11,9037503.075006
2,2, 1, 2, 0, 1, 0.00,60.00,Friday
7,-3.925
8,3.625
204,4.541231893993729
339,403.9854364785079
340,1285521.828242649
416,18751.537502999996
441,18751.537502999996
627,3.3827300305599866
11,9037503.075006
2,2, 1, 2, 0, 2, 0.00,60.00,Friday
7,-4.0
8,3.375
204,4.503256527860376
339,401.81902007076815
340,1290833.3764825156
416,18751.537502999996
441,18751.537502999996
627,3.337242093957829
11,9037503.075006
2,2, 1, 2, 0, 3, 0.00,60.00,Friday
7,-4.0
8,3.625
204,4.468300913558645
339,400.8313209516882
340,1285743.3226844226
416,18751.537502999996
441,18751.537502999996
627,3.308719511059466
11,9037503.075006
2,2, 1, 2, 0, 4, 0.00,60.00,Friday
7,-4.0
8,3.375
204,4.436375605805163
339,400.37943895695616
340,1280616.7751445107
416,18751.537502999996
441,18751.537502999996
627,3.2781604519674623
11,9037503.075006
2,2, 1, 2, 0, 5, 0.00,60.00,Friday
7,-4.0
8,4.875
204,4.402698042706164
339,400.1731360498717
340,1275985.9914281485
416,18751.537502999996
441,18751.537502999996
627,3.2545417151543083
11,9037503.075006
2,2, 1, 2, 0, 6, 0.00,60.00,Friday
7,-4.375
8,5.375
204,4.365698529103002
339,400.078382987251
340,1326346.561047995
416,18751.537502999996
441,18751.537502999996
627,3.166688525421319
11,9037503.075006
2,2, 1, 2, 0, 7, 0.00,60.00,Friday
7,-6.1
8,5.0
204,4.310749891891609
339,400.035600434554
340,1580081.7517992738
416,18751.537502999996
441,18751.537502999996
627,2.8695749614233153
11,9037503.075006
2,2, 1, 2, 0, 8, 0.00,60.00,Friday
7,-7.625
8,3.75
204,4.25766897835496
339,400.01617969571333
340,1801416.694835522
416,18751.537502999996
441,18751.537502999996
627,2.5881237723180512
11,9037503.075006
2,2, 1, 2, 0, 9, 0.00,60.00,Friday
7,-7.562500000000001
8,4.25
204,4.232553057859674
339,400.00738941865825
340,1787661.3684851243
416,18751.537502999996
441,18751.537502999996
627,2.5717251758980524
11,9037503.075006
2,2, 1, 2, 0,10, 0.00,60.00,Friday
7,-8.3625
8,4.375
204,6.057513438739142
339,519.9925929010276
340,2156039.0659956075
416,18751.537502999996
441,18751.537502999996
627,3.839259152770347
11,15546303.075006
2,2, 1, 2, 0,11, 0.00,60.00,Friday
7,-9.0
8,4.625
204,6.387667610715164
339,727.6508612040587
340,2326989.5627098563
416,18751.537502999996
441,18751.537502999996
627,4.164045940207647
11,15546303.075006
2,2, 1, 2, 0,12, 0.00,60.00,Friday
7,-8.0
8,3.75
204,6.466516623331177
339,836.6741288669523
340,2187963.126722674
416,18751.537502999996
441,18751.537502999996
627,4.383069455137145
11,15546303.075006
2,2, 1, 2, 0,13, 0.00,60.00,Friday
7,-7.775
8,3.625
204,5.079825275750716
339,780.741578897239
340,1972498.1597255222
416,18751.537502999996
441,18751.537502999996
627,3.3997615657915246
11,10339263.075006
2,2, 1, 2, 0,14, 0.00,60.00,Friday
7,-7.375
8,3.375
204,6.301262977501021
339,778.3964382705848
340,2042586.263254538
416,18751.537502999996
441,18751.537502999996
627,4.19426083272419
11,15546303.075006
2,2, 1, 2, 0,15, 0.00,60.00,Friday
7,-6.4375
8,3.0
204,6.59817312026183
339,856.800975317311
340,1968713.6414800305
416,18751.537502999996
441,18751.537502999996
627,4.717954491059485
11,15546303.075006
2,2, 1, 2, 0,16, 0.00,60.00,Friday
7,-6.6625
8,2.375
204,6.715826071262449
339,897.5815630774815
340,2022443.173678378
416,18751.537502999996
441,18751.537502999996
627,4.791342543164762
11,15546303.075006
2,2, 1, 2, 0,17, 0.00,60.00,Friday
7,-8.25
8,2.0
204,6.815199976420777
339,915.2799314535545
340,2277728.4135941355
416,18751.537502999996
441,18751.537502999996
627,4.640710713009863
11,15546303.075006
2,2, 1, 2, 0,18, 0.00,60.00,Friday
7,-8.375
8,2.0
204,6.932226379894997
339,923.6135510453337
340,2312467.2029682333
416,18751.537502999996
441,18751.537502999996
627,4.713178231860944
11,15546303.075006
2,2, 1, 2, 0,19, 0.00,60.00,Friday
7,-9.25
8,2.0
204,5.19600956450039
339,807.5534650477681
340,2219395.869247425
416,18751.537502999996
441,18751.537502999996
627,3.3160329601780676
11,9037503.075006
2,2, 1, 2, 0,20, 0.00,60.00,Friday
7,-10.0
8,2.0
204,4.826464660057209
339,600.7047758444979
340,2248966.0678196205
416,18751.537502999996
441,18751.537502999996
627,2.731295297089828
11,9037503.075006
2,2, 1, 2, 0,21, 0.00,60.00,Friday
7,-9.3125
8,2.0
204,4.747556588723391
339,491.40661648586723
340,2131971.0347865606
416,18751.537502999996
441,18751.537502999996
627,2.759350379642753
11,9037503.075006
2,2, 1, 2, 0,22, 0.00,60.00,Friday
7,-9.5875
8,1.375
204,4.644981524030238
339,442.09091560946126
340,2159921.148018972
416,18751.537502999996
441,18751.537502999996
627,2.6419817833742743
11,9037503.075006
2,2, 1, 2, 0,23, 0.00,60.00,Friday
7,-10.0
8,1.0
204,4.514949235617571
339,419.3295292104327
340,2202610.69461603
416,18751.537502999996
441,18751.537502999996
627,2.4702220066434917
11,9037503.075006
2,2, 1, 2, 0,24, 0.00,60.00,Friday
7,-9.25
8,1.0
204,4.392400929860894
339,408.88445575214
340,2070352.243909566
416,18751.537502999996
441,18751.537502999996
627,2.476303717286936
11,9037503.075006
2,3, 1, 3, 0, 1, 0.00,60.00,Saturday
7,-9.55
8,1.0
204,4.246180753243546
339,404.0973267986577
340,2095424.0611481983
416,18751.537502999996
441,18751.537502999996
627,2.317633285694009
11,9037503.075006
2,3, 1, 3, 0, 2, 0.00,60.00,Saturday
7,-10.0
8,1.0
204,4.084028204245568
339,401.88424589381395
340,2138322.5761508266
416,18751.537502999996
441,18751.537502999996
627,2.1093336703349
11,9037503.075006
2,3, 1, 3, 0, 3, 0.00,60.00,Saturday
7,-9.6875
8,1.625
204,3.9341182251237345
339,400.8668206587789
340,2068094.8354996252
416,18751.537502999996
441,18751.537502999996
627,2.027638971544036
11,9037503.075006
2,3, 1, 3, 0, 4, 0.00,60.00,Saturday
7,-10.4375
8,2.625
204,3.7640632712213193
339,400.39931851487694
340,2157088.44931252
416,18751.537502999996
441,18751.537502999996
627,1.7787294215966376
11,9037503.075006
2,3, 1, 3, 0, 5, 0.00,60.00,Saturday
7,-11.0
8,2.375
204,3.594759162244956
339,400.1831920276875
340,2215205.4308568113
416,18751.537502999996
441,18751.537502999996
627,1.54338914731873
11,9037503.075006
2,3, 1, 3, 0, 6, 0.00,60.00,Saturday
7,-10.3125
8,2.625
204,3.4515740119535647
339,400.0841873879522
340,2089153.2533945676
416,18751.537502999996
441,18751.537502999996
627,1.521679131249544
11,9037503.075006
2,3, 1, 3, 0, 7, 0.00,60.00,Saturday
7,-10.5875
8,2.375
204,3.2930629080515947
339,400.0387657543889
340,2108034.9959207354
416,18751.537502999996
441,18751.537502999996
627,1.3532788993863591
11,9037503.075006
2,3, 1, 3, 0, 8, 0.00,60.00,Saturday
7,-11.625
8,2.0
204,3.1117652642077025
339,400.01783449358237
340,2237823.678640661
416,18751.537502999996
441,18751.537502999996
627,1.0454071932132418
11,9037503.075006
2,3, 1, 3, 0, 9, 0.00,60.00,Saturday
7,-11.624999999999998
8,2.0
204,2.949911501625843
339,400.0082124014815
340,2211839.675279249
416,18751.537502999996
441,18751.537502999996
627,0.8987648528399216
11,9037503.075006
2,3, 1, 3, 0,10, 0.00,60.00,Saturday
7,-11.15
8,3.25
204,2.817482397280365
339,400.00378853711436
340,2120110.2309263432
416,18751.537502999996
441,18751.537502999996
627,0.8573760007588362
11,9037503.075006
2,3, 1, 3, 0,11, 0.00,60.00,Saturday
7,-11.0
8,5.25
204,2.656882763651365
339,400.0017326220392
340,2074377.2591322395
416,18751.537502999996
441,18751.537502999996
627,0.7500868673479865
11,9037503.075006
2,3, 1, 3, 0,12, 0.00,60.00,Saturday
7,-10.5625
8,4.125
204,2.511903172219845
339,400.0007887454829
340,1984176.1223575112
416,18751.537502999996
441,18751.537502999996
627,0.679918705450858
11,9037503.075006
2,3, 1, 3, 0,13, 0.00,60.00,Saturday
7,-9.4875
8,3.625
204,2.4132688695605085
339,400.00036309212635
340,1805288.1821239747
416,18751.537502999996
441,18751.537502999996
627,0.7498666883920178
11,9037503.075006
2,3, 1, 3, 0,14, 0.00,60.00,Saturday
7,-8.375
8,3.375
204,2.3539070535197473
339,400.00016673237
340,1626239.8274355405
416,18751.537502999996
441,18751.537502999996
627,0.8560820371900107
11,9037503.075006
2,3, 1, 3, 0,15, 0.00,60.00,Saturday
7,-7.375
8,3.625
204,2.331072300866626
339,400.00007664020177
340,1470249.6624411014
416,18751.537502999996
441,18751.537502999996
627,0.9786957668424943
11,9037503.075006
2,3, 1, 3, 0,16, 0.00,60.00,Saturday
7,-6.375
8,4.625
204,2.3404064077626705
339,400.00003513407455
340,1319082.5175827066
416,18751.537502999996
441,18751.537502999996
627,1.1299817172093107
11,9037503.075006
2,3, 1, 3, 0,17, 0.00,60.00,Saturday
7,-6.625
8,3.75
204,2.3634045601725115
339,400.000016073848
340,1360527.1393766445
416,18751.537502999996
441,18751.537502999996
627,1.1124186790100137
11,9037503.075006
2,3, 1, 3, 0,18, 0.00,60.00,Saturday
7,-6.6875
8,3.625
204,2.399788033421317
339,400.00000739055065
340,1374660.2695357811
416,18751.537502999996
441,18751.537502999996
627,1.1271952459125205
11,9037503.075006
2,3, 1, 3, 0,19, 0.00,60.00,Saturday
7,-6.8125
8,4.0
204,2.4358740799145635
339,400.0000033969483
340,1399930.796769204
416,18751.537502999996
441,18751.537502999996
627,1.1447151052585942
11,9037503.075006
2,3, 1, 3, 0,20, 0.00,60.00,Saturday
7,-6.375
8,4.625
204,2.4665382723855163
339,400.0000015561841
340,1338028.0933055778
416,18751.537502999996
441,18751.537502999996
627,1.2362364187712562
11,9037503.075006
2,3, 1, 3, 0,21, 0.00,60.00,Saturday
7,-6.0625
8,5.625
204,2.4824845678964587
339,400.0000007098537
340,1294464.861583809
416,18751.537502999996
441,18751.537502999996
627,1.3034452234442189
11,9037503.075006
2,3, 1, 3, 0,22, 0.00,60.00,Saturday
7,-6.0375
8,6.0
204,2.4781000396256143
339,400.0000003226386
340,1290297.0101585672
416,18751.537502999996
441,18751.537502999996
627,1.3054602876479133
11,9037503.075006
2,3, 1, 3, 0,23, 0.00,60.00,Saturday
7,-6.625
8,6.0
204,2.4528340126209853
339,400.0000001463336
340,1376823.9746428856
416,18751.537502999996
441,18751.537502999996
627,1.203810605603806
11,9037503.075006
2,3, 1, 3, 0,24, 0.00,60.00,Saturday
7,-7.0625
8,5.375
204,2.418856066834379
339,400.000000066448
340,1437512.9080056304
416,18751.537502999996
441,18751.537502999996
627,1.106279988022578
11,9037503.075006
2,4, 1, 4, 0, 1, 0.00,60.00,Sunday
7,-7.6625
8,4.375
204,2.3777556360048338
339,400.00000003035876
340,1523088.7692833173
416,18751.537502999996
441,18751.537502999996
627,0.9878766761170021
11,9037503.075006
2,4, 1, 4, 0, 2, 0.00,60.00,Sunday
7,-8.0
8,4.0
204,2.323299203907901
339,400.0000000139101
340,1565862.4104699385
416,18751.537502999996
441,18751.537502999996
627,0.8914191386610788
11,9037503.075006
2,4, 1, 4, 0, 3, 0.00,60.00,Sunday
7,-7.75
8,4.625
204,2.264167470268788
339,400.0000000063719
340,1519472.1256044623
416,18751.537502999996
441,18751.537502999996
627,0.8806261436677055
11,9037503.075006
2,4, 1, 4, 0, 4, 0.00,60.00,Sunday
7,-7.225
8,3.75
204,2.2062402688690064
339,400.000000002917
340,1430766.3315097473
416,18751.537502999996
441,18751.537502999996
627,0.9081985338157786
11,9037503.075006
2,4, 1, 4, 0, 5, 0.00,60.00,Sunday
7,-7.0
8,4.25
204,2.1320365218044866
339,400.0000000013399
340,1386507.6594009497
416,18751.537502999996
441,18751.537502999996
627,0.8863739599177283
11,9037503.075006
2,4, 1, 4, 0, 6, 0.00,60.00,Sunday
7,-6.812499999999999
8,4.375
204,2.049571079100454
339,400.00000000061306
340,1345200.7492299317
416,18751.537502999996
441,18751.537502999996
627,0.8412825183364568
11,9037503.075006
2,4, 1, 4, 0, 7, 0.00,60.00,Sunday
7,-6.8875
8,4.0
204,1.967538987255852
339,400.0000000002814
340,1344838.866366405
416,18751.537502999996
441,18751.537502999996
627,0.7625807651819905
11,9037503.075006
2,4, 1, 4, 0, 8, 0.00,60.00,Sunday
7,-7.0
8,4.625
204,1.8790944912792336
339,400.00000000012915
340,1348443.5881581078
416,18751.537502999996
441,18751.537502999996
627,0.6700356795460616
11,9037503.075006
2,4, 1, 4, 0, 9, 0.00,60.00,Sunday
7,-6.6875
8,5.0
204,1.8037377952376388
339,400.00000000005923
340,1288907.0215997612
416,18751.537502999996
441,18751.537502999996
627,0.6482142110480733
11,9037503.075006
2,4, 1, 4, 0,10, 0.00,60.00,Sunday
7,-6.1875
8,6.25
204,1.7410100981962906
339,400.00000000002717
340,1203517.795198978
416,18751.537502999996
441,18751.537502999996
627,0.6701953326946851
11,9037503.075006
2,4, 1, 4, 0,11, 0.00,60.00,Sunday
7,-6.625
8,5.75
204,1.6773403932240056
339,400.0000000000125
340,1260226.6630574844
416,18751.537502999996
441,18751.537502999996
627,0.5491128291233137
11,9037503.075006
2,4, 1, 4, 0,12, 0.00,60.00,Sunday
7,-6.562500000000001
8,3.75
204,1.6373401784523245
339,400.0000000000058
340,1243208.823175445
416,18751.537502999996
441,18751.537502999996
627,0.5142177293463038
11,9037503.075006
2,4, 1, 4, 0,13, 0.00,60.00,Sunday
7,-6.1125
8,4.25
204,1.6156993091524465
339,400.00000000000273
340,1171823.3761673318
416,18751.537502999996
441,18751.537502999996
627,0.5641153255085801
11,9037503.075006
2,4, 1, 4, 0,14, 0.00,60.00,Sunday
7,-6.0
8,4.375
204,1.6101001934754708
339,400.00000000000125
340,1152854.719698207
416,18751.537502999996
441,18751.537502999996
627,0.5705681856226422
11,9037503.075006
2,4, 1, 4, 0,15, 0.00,60.00,Sunday
7,-5.375
8,4.625
204,1.6417525914745736
339,400.00000000000057
340,1061475.6480384725
416,18751.537502999996
441,18751.537502999996
627,0.6830302512573889
11,9037503.075006
2,4, 1, 4, 0,16, 0.00,60.00,Sunday
7,-5.0
8,4.375
204,1.699128139620163
339,400.0000000000002
340,1012837.1503392715
416,18751.537502999996
441,18751.537502999996
627,0.7842348788218617
11,9037503.075006
2,4, 1, 4, 0,17, 0.00,60.00,Sunday
7,-5.0
8,3.375
204,1.7729696140175701
339,400.00000000000017
340,1023318.6669517421
416,18751.537502999996
441,18751.537502999996
627,0.8412156356777957
11,9037503.075006
2,4, 1, 4, 0,18, 0.00,60.00,Sunday
7,-5.125
8,3.0
204,1.8585269310984096
339,400.00000000000017
340,1055214.756821932
416,18751.537502999996
441,18751.537502999996
627,0.8941172776884921
11,9037503.075006
2,4, 1, 4, 0,19, 0.00,60.00,Sunday
7,-5.075
8,2.375
204,1.945170350126148
339,400.0000000000001
340,1060770.0496811718
416,18751.537502999996
441,18751.537502999996
627,0.9753045150481711
11,9037503.075006
2,4, 1, 4, 0,20, 0.00,60.00,Sunday
7,-5.0
8,2.0
204,2.0217784098497207
339,400.00000000000017
340,1061789.3233798593
416,18751.537502999996
441,18751.537502999996
627,1.0561020111631338
11,9037503.075006
2,4, 1, 4, 0,21, 0.00,60.00,Sunday
7,-4.5
8,3.25
204,2.087965646654213
339,400.00000000000034
340,996231.1022538936
416,18751.537502999996
441,18751.537502999996
627,1.1869868302922848
11,9037503.075006
2,4, 1, 4, 0,22, 0.00,60.00,Sunday
7,-4.075
8,2.75
204,2.1458263155051807
339,400.00000000000034
340,941161.0954052713
416,18751.537502999996
441,18751.537502999996
627,1.3028721087135482
11,9037503.075006
2,4, 1, 4, 0,23, 0.00,60.00,Sunday
7,-4.0
8,2.0
204,2.1880996281450606
339,400.0000000000005
340,936911.3269209003
416,18751.537502999996
441,18751.537502999996
627,1.354340778816672
11,9037503.075006
2,4, 1, 4, 0,24, 0.00,60.00,Sunday
7,-3.875
8,1.375
204,2.2240144209986688
339,400.00000000000034
340,923454.7583661238
416,18751.537502999996
441,18751.537502999996
627,1.402508879308001
11,9037503.075006
2,5, 1, 5, 0, 1, 0.00,60.00,Monday
7,-4.55
8,3.5
204,2.2396845846786753
339,400.0000000000001
340,1029749.0795827628
416,18751.537502999996
441,18751.537502999996
627,1.3234584134696443
11,9037503.075006
2,5, 1, 5, 0, 2, 0.00,60.00,Monday
7,-5.0
8,3.75
204,2.253241771776296
339,400.0000000000003
340,1098783.3972696064
416,18751.537502999996
441,18751.537502999996
627,1.2637936716829774
11,9037503.075006
2,5, 1, 5, 0, 3, 0.00,60.00,Monday
7,-5.0
8,3.0
204,2.281013119224909
339,400.00000000000006
340,1102978.718487265
416,18751.537502999996
441,18751.537502999996
627,1.2889416513529133
11,9037503.075006
2,5, 1, 5, 0, 4, 0.00,60.00,Monday
7,-5.625
8,3.625
204,2.2900342013714163
339,400.00000000000006
340,1200062.2676650453
416,18751.537502999996
441,18751.537502999996
627,1.2082082578966298
11,9037503.075006
2,5, 1, 5, 0, 5, 0.00,60.00,Monday
7,-6.0
8,3.375
204,2.2980223961968664
339,400.00000000000034
340,1257417.7709326749
416,18751.537502999996
441,18751.537502999996
627,1.1547770936053023
11,9037503.075006
2,5, 1, 5, 0, 6, 0.00,60.00,Monday
7,-6.749999999999999
8,3.0
204,2.3007844177393695
339,400.0000000000003
340,1372406.5145183913
416,18751.537502999996
441,18751.537502999996
627,1.0502749986930269
11,9037503.075006
2,5, 1, 5, 0, 7, 0.00,60.00,Monday
7,-7.7
8,3.0
204,2.289659207986949
339,400.0000000000004
340,1514567.1039012505
416,18751.537502999996
441,18751.537502999996
627,0.8985397702131156
11,9037503.075006
2,5, 1, 5, 0, 8, 0.00,60.00,Monday
7,-8.625
8,2.375
204,2.27475704119958
339,400.0000000000002
340,1652440.5076689848
416,18751.537502999996
441,18751.537502999996
627,0.7487723056317601
11,9037503.075006
2,5, 1, 5, 0, 9, 0.00,60.00,Monday
7,-9.125
8,2.0
204,2.258590725500897
339,400.0000000000003
340,1725162.9602728712
416,18751.537502999996
441,18751.537502999996
627,0.6590390812024189
11,9037503.075006
2,5, 1, 5, 0,10, 0.00,60.00,Monday
7,-9.7
8,2.0
204,4.085176963578158
339,520.3403195634256
340,2059203.1427330743
416,18751.537502999996
441,18751.537502999996
627,1.9595750365309814
11,15546303.075006
2,5, 1, 5, 0,11, 0.00,60.00,Monday
7,-10.0
8,2.0
204,4.446436637288814
339,730.0921239782185
340,2183087.449968908
416,18751.537502999996
441,18751.537502999996
627,2.3566182309673644
11,15546303.075006
2,5, 1, 5, 0,12, 0.00,60.00,Monday
7,-9.8125
8,2.625
204,4.533520708999426
339,841.1575871998875
340,2169737.4592415295
416,18751.537502999996
441,18751.537502999996
627,2.470938441400158
11,15546303.075006
2,5, 1, 5, 0,13, 0.00,60.00,Monday
7,-9.8875
8,2.375
204,3.1526610039261502
339,784.9608521174606
340,1999485.730688428
416,18751.537502999996
441,18751.537502999996
627,1.4417813876580454
11,10339263.075006
2,5, 1, 5, 0,14, 0.00,60.00,Monday
7,-10.0
8,2.0
204,4.367523337422388
339,782.6813702663109
340,2147513.391149922
416,18751.537502999996
441,18751.537502999996
627,2.1608849089715725
11,15546303.075006
2,5, 1, 5, 0,15, 0.00,60.00,Monday
7,-10.0
8,2.0
204,4.6312206992117835
339,860.5295893598266
340,2211444.446297641
416,18751.537502999996
441,18751.537502999996
627,2.519788954642026
11,15546303.075006
2,5, 1, 5, 0,16, 0.00,60.00,Monday
7,-10.0
8,2.0
204,4.717965977315014
339,900.2522422375387
340,2225097.1405159463
416,18751.537502999996
441,18751.537502999996
627,2.5978612589526375
11,15546303.075006
2,5, 1, 5, 0,17, 0.00,60.00,Monday
7,-11.25
8,2.0
204,4.780877351402858
339,918.1592566865893
340,2424689.8638633955
416,18751.537502999996
441,18751.537502999996
627,2.4710821119653192
11,15546303.075006
2,5, 1, 5, 0,18, 0.00,60.00,Monday
7,-11.437500000000002
8,2.0
204,4.853518819071393
339,926.8975208379904
340,2462781.482796957
416,18751.537502999996
441,18751.537502999996
627,2.4958915647049844
11,15546303.075006
2,5, 1, 5, 0,19, 0.00,60.00,Monday
7,-11.6625
8,2.0
204,3.1001562367093194
339,810.96594114827
340,2267033.778890445
416,18751.537502999996
441,18751.537502999996
627,1.1727478086466543
11,9037503.075006
2,5, 1, 5, 0,20, 0.00,60.00,Monday
7,-12.625
8,3.25
204,2.709681265265677
339,603.1750252514275
340,2326591.1458950858
416,18751.537502999996
441,18751.537502999996
627,0.5461823096573684
11,9037503.075006
2,5, 1, 5, 0,21, 0.00,60.00,Monday
7,-12.5625
8,2.75
204,2.6160803501437933
339,492.68308206622453
340,2300098.955117001
416,18751.537502999996
441,18751.537502999996
627,0.4591427406865225
11,9037503.075006
2,5, 1, 5, 0,22, 0.00,60.00,Monday
7,-13.9875
8,0.75
204,2.507790230313188
339,442.95345842508647
340,2501600.8985748747
416,18751.537502999996
441,18751.537502999996
627,0.16903032082892303
11,9037503.075006
2,5, 1, 5, 0,23, 0.00,60.00,Monday
7,-15.625
8,0.0
204,2.3640756065126207
339,419.84051470858003
340,2727072.518461828
416,18751.537502999996
441,18751.537502999996
627,-0.1997759816225932
11,9037503.075006
2,5, 1, 5, 0,24, 0.00,60.00,Monday
7,-14.625
8,1.25
204,2.2517083000043217
339,409.17139057879984
340,2557605.7932278444
416,18751.537502999996
441,18751.537502999996
627,-0.1542800059915424
11,9037503.075006
2,6, 1, 6, 0, 1, 0.00,60.00,Tuesday
7,-15.8
8,0.75
204,2.102010946807087
339,404.25868154907823
340,2716003.658170235
416,18751.537502999996
441,18751.537502999996
627,-0.4370240907687224
11,9037503.075006
2,6, 1, 6, 0, 2, 0.00,60.00,Tuesday
7,-17.0
8,0.0
204,1.9239061910612874
339,401.96890168409624
340,2868660.9319020314
416,18751.537502999996
441,18751.537502999996
627,-0.7757465163640453
11,9037503.075006
2,6, 1, 6, 0, 3, 0.00,60.00,Tuesday
7,-15.687499999999998
8,0.625
204,1.7860161397330723
339,400.91145518625865
340,2648578.987795507
416,18751.537502999996
441,18751.537502999996
627,-0.702845537700557
11,9037503.075006
2,6, 1, 6, 0, 4, 0.00,60.00,Tuesday
7,-17.4625
8,0.375
204,1.5934448216587167
339,400.42439563896187
340,2891677.322477478
416,18751.537502999996
441,18751.537502999996
627,-1.107839802652769
11,9037503.075006
2,6, 1, 6, 0, 5, 0.00,60.00,Tuesday
7,-19.0
8,0.0
204,1.3752766142227268
339,400.19646184778054
340,3088521.1003057887
416,18751.537502999996
441,18751.537502999996
627,-1.5355392397132988
11,9037503.075006
2,6, 1, 6, 0, 6, 0.00,60.00,Tuesday
7,-17.4375
8,0.625
204,1.216501238834365
339,400.09105805068987
340,2827046.4878402166
416,18751.537502999996
441,18751.537502999996
627,-1.4461363049086842
11,9037503.075006
2,6, 1, 6, 0, 7, 0.00,60.00,Tuesday
7,-18.6875
8,0.375
204,1.014411114376123
339,400.0424696346772
340,2989154.6632669545
416,18751.537502999996
441,18751.537502999996
627,-1.7823408145112014
11,9037503.075006
2,6, 1, 6, 0, 8, 0.00,60.00,Tuesday
7,-20.625
8,0.0
204,0.7757517445157132
339,400.0196891894263
340,3244245.0915949047
416,18751.537502999996
441,18751.537502999996
627,-2.2821749289419557
11,9037503.075006
2,6, 1, 6, 0, 9, 0.00,60.00,Tuesday
7,-19.125
8,0.625
204,0.6031922772097755
339,400.00913884013084
340,2988662.1751058046
416,18751.537502999996
441,18751.537502999996
627,-2.221957018822417
11,9037503.075006
2,6, 1, 6, 0,10, 0.00,60.00,Tuesday
7,-19.25
8,0.375
204,2.2894468317940406
339,520.5855195364104
340,3232331.00702137
416,18751.537502999996
441,18751.537502999996
627,-0.9758826712733106
11,15546303.075006
2,6, 1, 6, 0,11, 0.00,60.00,Tuesday
7,-20.0
8,0.0
204,2.467302248290759
339,731.2505022439402
340,3399163.145033703
416,18751.537502999996
441,18751.537502999996
627,-0.7867823281229487
11,15546303.075006
2,6, 1, 6, 0,12, 0.00,60.00,Tuesday
7,-16.4375
8,0.625
204,2.4367635158832166
339,844.4359343900362
340,2854785.7874729945
416,18751.537502999996
441,18751.537502999996
627,-0.29147775594380365
11,15546303.075006
2,6, 1, 6, 0,13, 0.00,60.00,Tuesday
7,-15.3625
8,0.375
204,0.9450078766118671
339,790.0335469033188
340,2495622.136016149
416,18751.537502999996
441,18751.537502999996
627,-1.2367451481831842
11,10339263.075006
2,6, 1, 6, 0,14, 0.00,60.00,Tuesday
7,-15.375
8,0.0
204,2.0427118249619047
339,787.4915820585411
340,2608811.73588146
416,18751.537502999996
441,18751.537502999996
627,-0.6120446595886802
11,15546303.075006
2,6, 1, 6, 0,15, 0.00,60.00,Tuesday
7,-11.499999999999998
8,1.25
204,2.2937664165259974
339,866.2918615519999
340,2081638.0583838597
416,18751.537502999996
441,18751.537502999996
627,0.29690613836636476
11,15546303.075006
2,6, 1, 6, 0,16, 0.00,60.00,Tuesday
7,-12.275
8,1.375
204,2.3421696020033798
339,908.0690850141974
340,2211898.1257828916
416,18751.537502999996
441,18751.537502999996
627,0.2541307707375567
11,15546303.075006
2,6, 1, 6, 0,17, 0.00,60.00,Tuesday
7,-14.625
8,0.375
204,2.364289381154321
339,925.1185145885901
340,2568192.0662929816
416,18751.537502999996
441,18751.537502999996
627,-0.0922896179591183
11,15546303.075006
2,6, 1, 6, 0,18, 0.00,60.00,Tuesday
7,-14.125000000000002
8,0.625
204,2.4551644973690427
339,933.781362252708
340,2504406.3723943494
416,18751.537502999996
441,18751.537502999996
627,0.047424872262176176
11,15546303.075006
2,6, 1, 6, 0,19, 0.00,60.00,Tuesday
7,-15.1
8,0.375
204,0.702141542148669
339,817.9218686985379
340,2423684.4336148873
416,18751.537502999996
441,18751.537502999996
627,-1.3789369760606913
11,9037503.075006