Program Version,EnergyPlus, Version 25.2.0-cf7368216c, YMD=2026.04.20 11:20
1,5,Environment Title[],Latitude[deg],Longitude[deg],Time Zone[],Elevation[m]
2,8,Day of Simulation[],Month[],Day of Month[],DST Indicator[1=yes 0=no],Hour[],StartMinute[],EndMinute[],DayType
3,5,Cumulative Day of Simulation[],Month[],Day of Month[],DST Indicator[1=yes 0=no],DayType  ! When Daily Report Variables Requested
4,2,Cumulative Days of Simulation[],Month[]  ! When Monthly Report Variables Requested
5,1,Cumulative Days of Simulation[] ! When Run Period Report Variables Requested
6,1,Calendar Year of Simulation[] ! When Annual Report Variables Requested
7,1,Environment,Site Outdoor Air Drybulb Temperature [C] !Hourly
8,1,Environment,Site Wind Speed [m/s] !Hourly
204,1,MAINZONE,Zone Mean Air Temperature [C] !Hourly
205,1,MAINZONE,Zone Infiltration Standard Density Volume Flow Rate [m3/s] !Hourly
206,1,MAINZONE,Zone Air System Sensible Heating Energy [J] !Hourly
291,1,MAINZONE,Zone Air System Sensible Cooling Energy [J] !Hourly
340,1,MAINZONE,Zone Air CO2 Concentration [ppm] !Hourly
341,1,MAINZONE,Zone Air Generic Air Contaminant Concentration [ppm] !Hourly
342,1,LAB_HX,Heat Exchanger Sensible Heating Energy [J] !Hourly
418,1,SUPPLY_FAN,Fan Electricity Energy [J] !Hourly
443,1,EXHAUST_FAN,Fan Electricity Energy [J] !Hourly
689,1,ERV_SA_OUTLET,System Node Temperature [C] !Hourly
11,1,Electricity:Facility [J] !Hourly
End of Data Dictionary
1,ANNUAL,  50.39,  30.54,   2.00, 178.60
2,1, 1, 1, 0, 1, 0.00,60.00,Thursday
7,-7.05
8,2.375
204,20.0
205,0.003474459823225632
206,1035183.8966157769
291,0.0
340,403.4820094264296
341,212.93378606838277
342,4100370.2423492866
418,18744.036887998802
443,18744.036887998802
689,16.046407748543047
11,37488.073775997604
2,1, 1, 1, 0, 2, 0.00,60.00,Thursday
7,-9.625
8,1.375
204,20.0
205,0.003386163833568519
206,1100720.237208262
291,0.0
340,401.6000198669151
341,97.84530879927516
342,4488113.795769166
418,18744.036887998802
443,18744.036887998802
689,15.660150584845084
11,37488.073775997604
2,1, 1, 1, 0, 3, 0.00,60.00,Thursday
7,-9.0625
8,1.625
204,20.0
205,0.0034248346647535585
206,1123479.163568091
291,0.0
340,400.73801335317864
341,45.13140489058965
342,4402855.006653078
418,18744.036887998802
443,18744.036887998802
689,15.744509518021488
11,37488.073775997604
2,1, 1, 1, 0, 4, 0.00,60.00,Thursday
7,-10.0625
8,0.75
204,20.0
205,0.0033700908022979755
206,1157101.478038659
291,0.0
340,400.34149163889435
341,20.883087487792434
342,4552898.592074502
418,18744.036887998802
443,18744.036887998802
689,15.594503479680226
11,37488.073775997604
2,1, 1, 1, 0, 5, 0.00,60.00,Thursday
7,-11.0
8,0.0
204,20.0
205,0.003340995525512895
206,1190994.7200183473
291,0.0
340,400.15788894762744
341,9.65531313544879
342,4694486.929329993
418,18744.036887998802
443,18744.036887998802
689,15.45386839110832
11,37488.073775997604
2,1, 1, 1, 0, 6, 0.00,60.00,Thursday
7,-9.625
8,1.25
204,20.0
205,0.003401284205940515
206,1198440.866015946
291,0.0
340,400.0730386310514
341,4.46649917161893
342,4487375.779410874
418,18744.036887998802
443,18744.036887998802
689,15.660103320114201
11,37488.073775997604
2,1, 1, 1, 0, 7, 0.00,60.00,Thursday
7,-9.55
8,1.375
204,20.0
205,0.0033965019115414687
206,1217151.432946955
291,0.0
340,400.033825340712
341,2.0685061329056635
342,4475759.056009987
418,18744.036887998802
443,18744.036887998802
689,15.671348037089484
11,37488.073775997604
2,1, 1, 1, 0, 8, 0.00,60.00,Thursday
7,-10.625
8,1.0
204,20.0
205,0.0033688019311711335
206,1250949.0822234643
291,0.0
340,400.0156438430927
341,0.9566610327637959
342,4637504.7899781605
418,18744.036887998802
443,18744.036887998802
689,15.510095343141838
11,37488.073775997604
2,1, 1, 1, 0, 9, 0.00,60.00,Thursday
7,-8.75
8,1.625
204,20.0
205,0.0034125437045371193
206,1230721.1504195223
291,0.0
340,400.0072394497256
341,0.4427108741762328
342,4355609.360881849
418,18744.036887998802
443,18744.036887998802
689,15.791331432043458
11,37488.073775997604
2,1, 1, 1, 0,10, 0.00,60.00,Thursday
7,-9.025
8,1.375
204,21.322039315052272
205,0.003386779779376072
206,0.0
291,833659.9899349887
340,509.95794116868285
341,0.23171344473286826
342,4568620.090407674
418,18744.036887998802
443,18744.036887998802
689,16.71366560037319
11,6816288.073775997
2,1, 1, 1, 0,11, 0.00,60.00,Thursday
7,-8.125
8,1.625
204,22.287216515723127
205,0.0033910006691969695
206,0.0
291,817576.2138488498
340,699.4948686482369
341,0.11767777561461668
342,4596897.489023367
418,18744.036887998802
443,18744.036887998802
689,17.766807614323444
11,8346288.073775997
2,1, 1, 1, 0,12, 0.00,60.00,Thursday
7,-5.000000000000001
8,2.625
204,22.446204294779083
205,0.003496051291382381
206,0.0
291,730949.8992191026
340,812.380404532114
341,0.05015900812235663
342,4155058.680183202
418,18744.036887998802
443,18744.036887998802
689,18.404254129531687
11,8346288.073775997
2,1, 1, 1, 0,13, 0.00,60.00,Thursday
7,-3.925
8,3.625
204,22.532717946388228
205,0.003675315484011584
206,0.0
291,700921.0563176085
340,859.4939728531147
341,0.021685023299991994
342,4008968.747273115
418,18744.036887998802
443,18744.036887998802
689,18.656581459038037
11,8346288.073775997
2,1, 1, 1, 0,14, 0.00,60.00,Thursday
7,-2.75
8,4.0
204,20.248528590858573
205,0.0037404328003496296
206,383218.9923534809
291,173431.0761040863
340,769.3088108518225
341,0.011870873486070861
342,3513972.427018912
418,18744.036887998802
443,18744.036887998802
689,17.05451653935839
11,256368.07377599765
2,1, 1, 1, 0,15, 0.00,60.00,Thursday
7,-0.8750000000000001
8,4.625
204,21.647713321725956
205,0.0038865072916282727
206,0.0
291,630782.4733195028
340,725.5686084907522
341,0.006516572810041112
342,3378954.306130604
418,18744.036887998802
443,18744.036887998802
689,18.156339416698586
11,6816288.073775997
2,1, 1, 1, 0,16, 0.00,60.00,Thursday
7,-0.075
8,4.375
204,22.618065140024775
205,0.0038020810604345264
206,0.0
291,605067.8456165348
340,807.1915191430753
341,0.0032854506819396815
342,3436939.591085393
418,18744.036887998802
443,18744.036887998802
689,19.26946432248107
11,8346288.073775997
2,1, 1, 1, 0,17, 0.00,60.00,Thursday
7,-1.25
8,4.625
204,22.669907589334642
205,0.003889464334821533
206,0.0
291,629892.3076703883
340,855.997583321237
341,0.0013901608635932864
342,3628281.018941755
418,18744.036887998802
443,18744.036887998802
689,19.18483819470856
11,8346288.073775997
2,1, 1, 1, 0,18, 0.00,60.00,Thursday
7,-2.0625
8,3.75
204,22.704966660593673
205,0.0036827599286197226
206,0.0
291,655255.1709316117
340,876.222409297378
341,0.000596242848293123
342,3753187.564407372
418,18744.036887998802
443,18744.036887998802
689,19.07984426706207
11,8346288.073775997
2,1, 1, 1, 0,19, 0.00,60.00,Thursday
7,-3.9125
8,3.0
204,20.287407495250015
205,0.003536996234808504
206,412847.16620746674
291,209816.22539226932
340,765.3075514885039
341,0.0003253858099748029
342,3695755.714786217
418,18744.036887998802
443,18744.036887998802
689,16.90935526849295
11,37488.073775997604
2,1, 1, 1, 0,20, 0.00,60.00,Thursday
7,-5.625
8,2.375
204,20.000000024151188
205,0.0034540590055991455
206,771200.2368589994
291,0.0
340,576.2348089594027
341,0.00015562684800377567
342,3884276.528378264
418,18744.036887998802
443,18744.036887998802
689,16.26021981943721
11,37488.073775997604
2,1, 1, 1, 0,21, 0.00,60.00,Thursday
7,-5.0
8,2.625
204,20.000000000001176
205,0.003489003758008023
206,863364.3761881285
291,0.0
340,479.8464770605945
341,0.00007055449350724728
342,3790456.830662675
418,18744.036887998802
443,18744.036887998802
689,16.353959891127076
11,37488.073775997604
2,1, 1, 1, 0,22, 0.00,60.00,Thursday
7,-4.15
8,3.0
204,20.0
205,0.0035400789580765204
206,911152.9467724017
291,0.0
340,436.3951679385796
341,0.00003215817236424896
342,3662498.813246462
418,18744.036887998802
443,18744.036887998802
689,16.48144457089804
11,37488.073775997604
2,1, 1, 1, 0,23, 0.00,60.00,Thursday
7,-4.0
8,2.375
204,20.0
205,0.0034322063403679965
206,942003.5738898241
291,0.0
340,416.58565696725145
341,0.000014654868328380698
342,3639803.8599513397
418,18744.036887998802
443,18744.036887998802
689,16.50393190110638
11,37488.073775997604
2,1, 1, 1, 0,24, 0.00,60.00,Thursday
7,-3.875
8,2.625
204,20.0
205,0.00347374885523138
206,983409.9424538022
291,0.0
340,407.5759288368496
341,0.0000066939892166249465
342,3621446.6408325103
418,18744.036887998802
443,18744.036887998802
689,16.522665895187142
11,37488.073775997604
2,2, 1, 2, 0, 1, 0.00,60.00,Friday
7,-3.925
8,3.625
204,20.0
205,0.00366931427649314
206,1038092.0808144109
291,0.0
340,403.58720313649104
341,0.000003169604693397797
342,3629602.4307915294
418,10901.50887128272
443,10901.50887128272
689,16.48372699492854
11,21803.01774256544
2,2, 1, 2, 0, 2, 0.00,60.00,Friday
7,-4.0
8,3.375
204,20.0
205,0.003612405598440292
206,1061996.8531352289
291,0.0
340,402.13159367600804
341,0.0000018834476482734012
342,3641102.7687201137
418,3365.945277133518
443,3365.945277133518
689,16.43783949867131
11,6731.890554267036
2,2, 1, 2, 0, 3, 0.00,60.00,Friday
7,-4.0
8,3.625
204,20.0
205,0.003667572880541937
206,1094125.067799891
291,0.0
340,401.47139141732254
341,0.0000013001017670417837
342,3641102.768720114
418,2036.234098728191
443,2036.234098728191
689,16.431081829700098
11,4072.468197456382
2,2, 1, 2, 0, 4, 0.00,60.00,Friday
7,-4.0
8,3.375
204,20.0
205,0.003611610840682202
206,1112206.1834802933
291,0.0
340,401.08582833325283
341,9.594233853373037e-7
342,3642031.095500123
418,1571.4955164838184
443,1571.4955164838184
689,16.429856222159938
11,3142.991032967637
2,2, 1, 2, 0, 5, 0.00,60.00,Friday
7,-4.0
8,4.875
204,20.0
205,0.0040225127514351726
206,1178420.3695868584
291,0.0
340,400.83457420531107
341,7.374186000247696e-7
342,3640847.7069176044
418,1355.2985360514404
443,1355.2985360514404
689,16.430445463633998
11,2710.5970721028807
2,2, 1, 2, 0, 6, 0.00,60.00,Friday
7,-4.375
8,5.375
204,20.0
205,0.0041836889875563376
206,1224142.7063269473
291,0.0
340,400.6543711438102
341,5.781935862553017e-7
342,3695277.024192139
418,1232.4972476537519
443,1232.4972476537519
689,16.375524272965695
11,2464.9944953075037
2,2, 1, 2, 0, 7, 0.00,60.00,Friday
7,-6.1
8,5.0
204,20.0
205,0.004081394272185991
206,1269392.5253500142
291,0.0
340,400.5244701846013
341,4.63414836957707e-7
342,3954474.8585943347
418,1156.9852924453753
443,1156.9852924453753
689,16.118370601643086
11,2313.9705848907506
2,2, 1, 2, 0, 8, 0.00,60.00,Friday
7,-7.625
8,3.75
204,20.0
205,0.003758236916686517
206,1280260.6873925794
291,0.0
340,400.42749034473627
341,3.777247481809633e-7
342,4184756.1766938
418,1107.1296581626987
443,1107.1296581626987
689,15.891261959539854
11,2214.2593163253973
2,2, 1, 2, 0, 9, 0.00,60.00,Friday
7,-7.562500000000001
8,4.25
204,20.0
205,0.0039011629868561854
206,1305689.3132077514
291,0.0
340,400.3536190939262
341,3.124530994674942e-7
342,4176010.1537189716
418,1072.607122115946
443,1072.607122115946
689,15.902201365564629
11,2145.214244231892
2,2, 1, 2, 0,10, 0.00,60.00,Friday
7,-8.3625
8,4.375
204,21.580066624298016
205,0.0039333874368218
206,0.0
291,196979.81487226096
340,525.5178772272016
341,2.657498789894705e-7
342,4500778.336900319
418,1368.2311849007126
443,1368.2311849007126
689,16.92297772638958
11,6781536.4623698015
2,2, 1, 2, 0,11, 0.00,60.00,Friday
7,-9.0
8,4.625
204,22.37830376836449
205,0.0040060276971818215
206,0.0
291,532119.938718935
340,767.1759630467278
341,1.8918606880817665e-7
342,4751884.64120518
418,6444.912566732552
443,6444.912566732552
689,17.72000725439991
11,8321689.825133465
2,2, 1, 2, 0,12, 0.00,60.00,Friday
7,-8.0
8,3.75
204,22.36732406425908
205,0.0037835523073163216
206,0.0
291,763997.5516472856
340,873.4514337464665
341,9.356535877094319e-8
342,4597323.327015698
418,15969.088732138734
443,15969.088732138734
689,17.891721537272744
11,8340738.177464277
2,2, 1, 2, 0,13, 0.00,60.00,Friday
7,-7.775
8,3.625
204,22.425435975481626
205,0.0037355895229905334
206,0.0
291,800287.9651448631
340,889.7017678848131
341,4.088421794730433e-8
342,4573104.870712742
418,18568.538100784004
443,18568.538100784004
689,17.99226020730778
11,8345937.076201567
2,2, 1, 2, 0,14, 0.00,60.00,Friday
7,-7.375
8,3.375
204,20.214192064238908
205,0.0036628921835774584
206,505933.16483639856
291,187050.35453070543
340,795.9720472905573
341,2.2966277306516214e-8
342,4203388.16135154
418,12473.165075164065
443,12473.165075164065
689,16.296503508343726
11,243826.33015032817
2,2, 1, 2, 0,15, 0.00,60.00,Friday
7,-6.4375
8,3.0
204,21.624637902408153
205,0.0035899957614894287
206,0.0
291,589749.2050237072
340,776.0287859198365
341,1.4332782234353049e-8
342,4212096.83014493
418,8741.924827557585
443,8741.924827557585
689,17.26908443157624
11,6796283.849655115
2,2, 1, 2, 0,16, 0.00,60.00,Friday
7,-6.6625
8,2.375
204,22.51391067977032
205,0.0034799662402284727
206,0.0
291,709282.5187512412
340,862.9989818592298
341,8.026585044240532e-9
342,4414439.882879594
418,14508.757343061247
443,14508.757343061247
689,18.196617770964625
11,8337817.514686123
2,2, 1, 2, 0,17, 0.00,60.00,Friday
7,-8.25
8,2.0
204,22.521035719852186
205,0.003435526978050565
206,0.0
291,812049.1620057992
340,889.4984323645396
341,3.5361638666592185e-9
342,4659646.501332153
418,18478.551866317743
443,18478.551866317743
689,18.008692819951783
11,8345757.103732636
2,2, 1, 2, 0,18, 0.00,60.00,Friday
7,-8.375
8,2.0
204,22.555720878030183
205,0.0034553968954476643
206,0.0
291,822550.2968634118
340,893.356910006836
341,1.5272774743747186e-9
342,4680574.870743462
418,18744.036887998802
443,18744.036887998802
689,18.00722754543583
11,8346288.073775997
2,2, 1, 2, 0,19, 0.00,60.00,Friday
7,-9.25
8,2.0
204,20.23544002235667
205,0.0034595698239406137
206,562794.5125233914
291,193569.50166540395
340,788.5054100257966
341,8.642165867764375e-10
342,4490811.892761573
418,12163.562864064168
443,12163.562864064168
689,16.042332167396513
11,24327.125728128336
2,2, 1, 2, 0,20, 0.00,60.00,Friday
7,-10.0
8,2.0
204,20.000000027318144
205,0.0034583245007173786
206,872890.5611356902
291,0.0
340,631.9842129415126
341,5.116943238023205e-10
342,4542076.543036729
418,4185.812054161122
443,4185.812054161122
689,15.54214907277537
11,8371.624108322245
2,2, 1, 2, 0,21, 0.00,60.00,Friday
7,-9.3125
8,2.0
204,20.000000000000146
205,0.003467042938136181
206,954011.2814899147
291,0.0
340,558.1657754990554
341,3.4902874589918816e-10
342,4438961.989310675
418,1958.6477243650402
443,1958.6477243650402
689,15.633998056372242
11,3917.2954487300804
2,2, 1, 2, 0,22, 0.00,60.00,Friday
7,-9.5875
8,1.375
204,20.0
205,0.0033978345512962515
206,1008080.7716365444
291,0.0
340,519.3034439195557
341,2.632650376675726e-10
342,4480330.831519306
418,1416.9838226439313
443,1416.9838226439313
689,15.592119692255112
11,2833.9676452878625
2,2, 1, 2, 0,23, 0.00,60.00,Friday
7,-10.0
8,1.0
204,20.0
205,0.003361274443776734
206,1056588.6445168422
291,0.0
340,494.7942829329935
341,2.0918120388083878e-10
342,4542385.6866506245
418,1197.526181042761
443,1197.526181042761
689,15.532533382823669
11,2395.052362085522
2,2, 1, 2, 0,24, 0.00,60.00,Friday
7,-9.25
8,1.0
204,20.0
205,0.0033678089976245016
206,1084323.9419412524
291,0.0
340,477.9279258959082
341,1.7196244853440953e-10
342,4429382.629560343
418,1084.7438844832238
443,1084.7438844832238
689,15.648602212090715
11,2169.4877689664477
2,3, 1, 3, 0, 1, 0.00,60.00,Saturday
7,-9.55
8,1.0
204,20.0
205,0.0033651997825193047
206,1124596.2506659112
291,0.0
340,465.62149682994755
341,1.4480602618059497e-10
342,4474584.110403834
418,1017.3115088048756
443,1017.3115088048756
689,15.607900001864438
11,2034.6230176097513
2,3, 1, 3, 0, 2, 0.00,60.00,Saturday
7,-10.0
8,1.0
204,20.0
205,0.003361274443776734
206,1163093.7934998951
291,0.0
340,456.2014426553685
341,1.2401892626083772e-10
342,4542385.6866506245
418,972.3391866633715
443,972.3391866633715
689,15.545238683579743
11,1944.678373326743
2,3, 1, 3, 0, 3, 0.00,60.00,Saturday
7,-9.6875
8,1.625
204,20.0
205,0.0034277081057781165
206,1197284.6898267865
291,0.0
340,448.76372476040575
341,1.0760621968990453e-10
342,4495051.550952523
418,942.6120385913385
443,942.6120385913385
689,15.59687146394869
11,1885.224077182677
2,3, 1, 3, 0, 4, 0.00,60.00,Saturday
7,-10.4375
8,2.625
204,20.0
205,0.0035694245187956413
206,1259153.8389843467
291,0.0
340,442.52123925033436
341,9.383101546774714e-11
342,4608046.159025998
418,938.1952488431534
443,938.1952488431534
689,15.485207207973973
11,1876.3904976863068
2,3, 1, 3, 0, 5, 0.00,60.00,Saturday
7,-11.0
8,2.375
204,20.0
205,0.003527322860341697
206,1289592.2356529161
291,0.0
340,437.02497280874405
341,8.170248227849691e-11
342,4692879.194115752
418,938.1908111104028
443,938.1908111104028
689,15.400823720631841
11,1876.3816222208056
2,3, 1, 3, 0, 6, 0.00,60.00,Saturday
7,-10.3125
8,2.625
204,20.0
205,0.0035729456823440716
206,1306725.3962144712
291,0.0
340,432.2722834426207
341,7.121479007365054e-11
342,4589371.777197314
418,938.1869671065361
443,938.1869671065361
689,15.503939451280717
11,1876.3739342130723
2,3, 1, 3, 0, 7, 0.00,60.00,Saturday
7,-10.5875
8,2.375
204,20.0
205,0.0035303693046053655
206,1328955.1433445464
291,0.0
340,428.1154652232978
341,6.204199827570561e-11
342,4630774.428396373
418,938.18360846927
443,938.18360846927
689,15.462683195546328
11,1876.36721693854
2,3, 1, 3, 0, 8, 0.00,60.00,Saturday
7,-11.625
8,2.0
204,20.0
205,0.0034797268424919467
206,1364130.5022444571
291,0.0
340,424.52250638723234
341,5.41134669801555e-11
342,4787490.160352007
418,938.180700139899
443,938.180700139899
689,15.307052132871233
11,1876.361400279798
2,3, 1, 3, 0, 9, 0.00,60.00,Saturday
7,-11.624999999999998
8,2.0
204,20.0
205,0.003494027245961823
206,1378914.2276196603
291,0.0
340,421.3959083785487
341,4.721404750681745e-11
342,4787779.335566215
418,938.1781735530379
443,938.1781735530379
689,15.307045059067407
11,1876.3563471060759
2,3, 1, 3, 0,10, 0.00,60.00,Saturday
7,-11.15
8,3.25
204,20.0
205,0.00370489515314704
206,1384215.2980715039
291,0.0
340,418.6477443581223
341,4.114971294708266e-11
342,4716410.237480302
418,938.1759646599196
443,938.1759646599196
689,15.378289481978545
11,1876.3519293198392
2,3, 1, 3, 0,11, 0.00,60.00,Saturday
7,-11.0
8,5.25
204,20.0
205,0.004244541994438191
206,1466304.474432466
291,0.0
340,416.14000915951914
341,3.561592925785731e-11
342,4693918.420935286
418,938.173966918063
443,938.173966918063
689,15.400788168014785
11,1876.347933836126
2,3, 1, 3, 0,12, 0.00,60.00,Saturday
7,-10.5625
8,4.125
204,20.0
205,0.003925421686337371
206,1453419.0537759967
291,0.0
340,413.91144103803066
341,3.069817959757046e-11
342,4628220.102747491
418,938.1721546233573
443,938.1721546233573
689,15.46641366185831
11,1876.3443092467146
2,3, 1, 3, 0,13, 0.00,60.00,Saturday
7,-9.4875
8,3.625
204,20.0
205,0.003757410430868856
206,1437410.799364397
291,0.0
340,412.08624875578704
341,2.6670553679648452e-11
342,4465845.766484218
418,938.1706634023933
443,938.1706634023933
689,15.627659910572746
11,1876.3413268047866
2,3, 1, 3, 0,14, 0.00,60.00,Saturday
7,-8.375
8,3.375
204,20.0
205,0.003675888468488741
206,1426185.8958879262
291,0.0
340,410.4983353485742
341,2.3166527689331843e-11
342,4298012.137612737
418,938.1693801803044
443,938.1693801803044
689,15.79453070816173
11,1876.3387603606088
2,3, 1, 3, 0,15, 0.00,60.00,Saturday
7,-7.375
8,3.625
204,20.0
205,0.003717367459625318
206,1435430.3640195846
291,0.0
340,409.13144502562665
341,2.0150230203735502e-11
342,4147557.353522375
418,938.1682742586443
443,938.1682742586443
689,15.944525495181836
11,1876.3365485172885
2,3, 1, 3, 0,16, 0.00,60.00,Saturday
7,-6.375
8,4.625
204,20.0
205,0.00396607999977658
206,1471644.2097910405
291,0.0
340,407.9194332308112
341,1.7475700969136292e-11
342,3996378.3339214334
418,938.1673010339761
443,938.1673010339761
689,16.094522549435382
11,1876.3346020679521
2,3, 1, 3, 0,17, 0.00,60.00,Saturday
7,-6.625
8,3.75
204,20.0
205,0.00374362084086404
206,1475041.6123050374
291,0.0
340,406.85903338050286
341,1.5135731661786476e-11
342,4034285.839446188
418,938.1664399745991
443,938.1664399745991
689,16.057021583521877
11,1876.3328799491983
2,3, 1, 3, 0,18, 0.00,60.00,Saturday
7,-6.6875
8,3.625
204,20.000000000000004
205,0.0037164535664828014
206,1492729.408538144
291,0.0
340,405.9667292732283
341,1.3166696846062907e-11
342,4044807.677094037
418,938.1657150583643
443,938.1657150583643
689,16.047640811036207
11,1876.3314301167286
2,3, 1, 3, 0,19, 0.00,60.00,Saturday
7,-6.8125
8,4.0
204,20.0
205,0.0038034565377521178
206,1523938.2462585345
291,0.0
340,405.18308624146147
341,1.1437442884248221e-11
342,4063338.577627425
418,938.1650837760014
443,938.1650837760014
689,16.028887842561588
11,1876.3301675520029
2,3, 1, 3, 0,20, 0.00,60.00,Saturday
7,-6.375
8,4.625
204,20.0
205,0.00396607999977658
206,1552568.2120320192
291,0.0
340,404.49493682482364
341,9.918913328312104e-12
342,3996378.333921434
418,938.1645293554379
443,938.1645293554379
689,16.09451181406174
11,1876.3290587108759
2,3, 1, 3, 0,21, 0.00,60.00,Saturday
7,-6.0625
8,5.625
204,20.0
205,0.004296036789921962
206,1601390.2483647647
291,0.0
340,403.88133056845106
341,8.564877106700056e-12
342,3949521.0574729377
418,938.1640368765256
443,938.1640368765256
689,16.14138599980562
11,1876.3280737530513
2,3, 1, 3, 0,22, 0.00,60.00,Saturday
7,-6.0375
8,6.0
204,20.0
205,0.0044284816116423684
206,1632595.2354878213
291,0.0
340,403.3370339641985
341,7.36378551122768e-12
342,3945516.5401538014
418,938.16359792278
443,938.16359792278
689,16.14513810968073
11,1876.32719584556
2,3, 1, 3, 0,23, 0.00,60.00,Saturday
7,-6.625
8,6.0
204,20.0
205,0.004432780098303787
206,1663134.2838174326
291,0.0
340,402.86689623971955
341,6.326339263769009e-12
342,4034285.839446188
418,938.1632167509912
443,938.1632167509912
689,16.057015084655593
11,1876.3264335019824
2,3, 1, 3, 0,24, 0.00,60.00,Saturday
7,-7.0625
8,5.375
204,20.0
205,0.004222868416909336
206,1663241.9546254794
291,0.0
340,402.46649836540996
341,5.4427869543827784e-12
342,4100819.5405659927
418,938.1628905618423
443,938.1628905618423
689,15.991389389020572
11,1876.3257811236847
2,4, 1, 4, 0, 1, 0.00,60.00,Sunday
7,-7.6625
8,4.375
204,20.0
205,0.003917656468884627
206,1652661.2331859842
291,0.0
340,402.1329825115266
341,4.706822250715027e-12
342,4190975.6604589336
418,938.1626179916559
443,938.1626179916559
689,15.901387686556358
11,1876.3252359833118
2,4, 1, 4, 0, 2, 0.00,60.00,Sunday
7,-8.0
8,4.0
204,20.0
205,0.003815600530982964
206,1659870.2723766959
291,0.0
340,401.8513726269594
341,4.085397713223893e-12
342,4241590.191249482
418,938.1623892900361
443,938.1623892900361
689,15.850759037179031
11,1876.3247785800722
2,4, 1, 4, 0, 3, 0.00,60.00,Sunday
7,-7.75
8,4.625
204,20.0
205,0.003991444038407015
206,1690386.9505237653
291,0.0
340,401.60612813874087
341,3.5442201799932206e-12
342,4203962.971295492
418,938.1621916790351
443,938.1621916790351
689,15.88825473291852
11,1876.3243833580702
2,4, 1, 4, 0, 4, 0.00,60.00,Sunday
7,-7.225
8,3.75
204,20.0
205,0.0037554630481978772
206,1664956.4467985944
291,0.0
340,401.3921148232226
341,3.0719600325297587e-12
342,4124282.1608678643
418,938.162017933915
443,938.162017933915
689,15.967002846272008
11,1876.32403586783
2,4, 1, 4, 0, 5, 0.00,60.00,Sunday
7,-7.0
8,4.25
204,20.0
205,0.0038779484829456336
206,1689736.9076679994
291,0.0
340,401.2106522221705
341,2.671529084929527e-12
342,4089407.202859289
418,938.1618711063968
443,938.1618711063968
689,16.00075099122175
11,1876.3237422127936
2,4, 1, 4, 0, 6, 0.00,60.00,Sunday
7,-6.812499999999999
8,4.375
204,20.0
205,0.0039007989679626714
206,1702262.571261549
291,0.0
340,401.0489580226832
341,2.314720788637335e-12
342,4061430.000910776
418,938.1617408588597
443,938.1617408588597
689,16.028874543424102
11,1876.3234817177195
2,4, 1, 4, 0, 7, 0.00,60.00,Sunday
7,-6.8875
8,4.0
204,20.0
205,0.0037988694335892837
206,1703905.9413251767
291,0.0
340,400.9107798524923
341,2.009804980605957e-12
342,4073687.5138800633
418,938.1616285864961
443,938.1616285864961
689,16.017621043492436
11,1876.3232571729923
2,4, 1, 4, 0, 8, 0.00,60.00,Sunday
7,-7.0
8,4.625
204,20.0
205,0.0039754441044861505
206,1740568.4834354818
291,0.0
340,400.79045519632393
341,1.7442862687074306e-12
342,4090876.784497538
418,938.1615316591817
443,938.1615316591817
689,16.00074318934553
11,1876.3230633183634
2,4, 1, 4, 0, 9, 0.00,60.00,Sunday
7,-6.6875
8,5.0
204,20.0
205,0.004078864816969795
206,1759815.9242804814
291,0.0
340,400.68384433245103
341,1.5090295877300041e-12
342,4043707.190198358
418,938.16144576039
443,938.16144576039
689,16.047617113993027
11,1876.32289152078
2,4, 1, 4, 0,10, 0.00,60.00,Sunday
7,-6.1875
8,6.25
204,20.0
205,0.004530741855268007
206,1808027.282729063
291,0.0
340,400.58969704062906
341,1.3012760943950115e-12
342,3967354.86174969
418,938.161370235825
443,938.161370235825
689,16.12261877334096
11,1876.32274047165
2,4, 1, 4, 0,11, 0.00,60.00,Sunday
7,-6.625
8,5.75
204,20.0
205,0.004348644432109784
206,1802263.1190404703
291,0.0
340,400.5058257418367
341,1.1161984891078652e-12
342,4034626.562321949
418,938.1613022739623
443,938.1613022739623
689,16.05699610856675
11,1876.3226045479246
2,4, 1, 4, 0,12, 0.00,60.00,Sunday
7,-6.562500000000001
8,3.75
204,20.0
205,0.003736242267780936
206,1740312.4621694433
291,0.0
340,400.437789025107
341,9.660628314368647e-13
342,4026284.927319763
418,938.1612461413742
443,938.1612461413742
689,16.066367073912467
11,1876.3224922827485
2,4, 1, 4, 0,13, 0.00,60.00,Sunday
7,-6.1125
8,4.25
204,20.0
205,0.0038593733298268665
206,1760540.7066657227
291,0.0
340,400.3809111203593
341,8.40551165872553e-13
342,3957944.683300335
418,938.1612001311349
443,938.1612001311349
689,16.13386136955915
11,1876.3224002622699
2,4, 1, 4, 0,14, 0.00,60.00,Sunday
7,-6.0
8,4.375
204,20.0
205,0.0038882113965026245
206,1776083.7284772617
291,0.0
340,400.33022360912287
341,7.286997538560622e-13
342,3940692.8583410634
418,938.1611592996544
443,938.1611592996544
689,16.150734150022515
11,1876.3223185993088
2,4, 1, 4, 0,15, 0.00,60.00,Sunday
7,-5.375
8,4.625
204,20.0
205,0.003950583591634015
206,1787599.8932192768
291,0.0
340,400.28659702710445
341,6.324295941823179e-13
342,3846008.1925877132
418,938.1611239862082
443,938.1611239862082
689,16.24448171201704
11,1876.3222479724163
2,4, 1, 4, 0,16, 0.00,60.00,Sunday
7,-5.0
8,4.375
204,20.0
205,0.003873426407307155
206,1792142.2748133705
291,0.0
340,400.2484072310805
341,5.481567130377878e-13
342,3789850.220132456
418,938.1610930952216
443,938.1610930952216
689,16.30072915077443
11,1876.3221861904433
2,4, 1, 4, 0,17, 0.00,60.00,Sunday
7,-5.0
8,3.375
204,20.0
205,0.0036270776234877894
206,1783881.4828969548
291,0.0
340,400.21608067319085
341,4.768221563116494e-13
342,3791025.4208279396
418,938.161066751177
443,938.161066751177
689,16.300723501332698
11,1876.322133502354
2,4, 1, 4, 0,18, 0.00,60.00,Sunday
7,-5.125
8,3.0
204,20.0
205,0.0035416606485943474
206,1790223.0593769946
291,0.0
340,400.1885259504917
341,4.1601754060938714e-13
342,3810545.7447001897
418,938.1610444209507
443,938.1610444209507
689,16.281966862409348
11,1876.3220888419014
2,4, 1, 4, 0,19, 0.00,60.00,Sunday
7,-5.075
8,2.375
204,20.0
205,0.003440654653696431
206,1790251.4280041764
291,0.0
340,400.16464264877493
341,3.633145975080618e-13
342,3802924.0703517725
418,938.16102508534
443,938.16102508534
689,16.28946165531908
11,1876.32205017068
2,4, 1, 4, 0,20, 0.00,60.00,Sunday
7,-5.0
8,2.0
204,20.0
205,0.0033903086037415896
206,1794905.2018016926
291,0.0
340,400.14406314874253
341,3.1790210671732957e-13
342,3791491.2111362154
418,938.1610084268145
443,938.1610084268145
689,16.300706898849754
11,1876.322016853629
2,4, 1, 4, 0,21, 0.00,60.00,Sunday
7,-4.5
8,3.25
204,20.0
205,0.0035927280036406307
206,1819856.770118043
291,0.0
340,400.1259375056841
341,2.779045073020208e-13
342,3716786.278715211
418,938.1609938703671
443,938.1609938703671
689,16.37570081448752
11,1876.3219877407341
2,4, 1, 4, 0,22, 0.00,60.00,Sunday
7,-4.075
8,2.75
204,20.0
205,0.0034954937325911975
206,1812180.9380071047
291,0.0
340,400.10980541222074
341,2.423060454993361e-13
342,3652678.9079109416
418,938.1609808429831
443,938.1609808429831
689,16.439448104844633
11,1876.3219616859662
2,4, 1, 4, 0,23, 0.00,60.00,Sunday
7,-4.0
8,2.0
204,20.0
205,0.0033769595194707716
206,1809278.9260939336
291,0.0
340,400.09607439706826
341,2.1200600914380054e-13
342,3641102.7687201146
418,938.1609696909866
443,938.1609696909866
689,16.45069557062671
11,1876.3219393819732
2,4, 1, 4, 0,24, 0.00,60.00,Sunday
7,-3.875
8,1.375
204,20.0
205,0.0033068729070297627
206,1809711.0455869127
291,0.0
340,400.08415179420354
341,1.8569657053017482e-13
342,3623140.4263792
418,938.1609600557356
443,938.1609600557356
689,16.469440319240796
11,1876.3219201114712
2,5, 1, 5, 0, 1, 0.00,60.00,Monday
7,-4.55
8,3.5
204,20.0
205,0.003681170149472399
206,1873359.3448061235
291,0.0
340,400.0736260680927
341,1.6246960003406461e-13
342,3725209.068021623
418,938.1609516259032
443,938.1609516259032
689,16.368187798700063
11,1876.3219032518064
2,5, 1, 5, 0, 2, 0.00,60.00,Monday
7,-5.0
8,3.75
204,20.0
205,0.003718850118585771
206,1895264.9347956136
291,0.0
340,400.06400346006
341,1.4123552738982125e-13
342,3791247.3257940095
418,938.1609438983002
443,938.1609438983002
689,16.300693678072886
11,1876.3218877966003
2,5, 1, 5, 0, 3, 0.00,60.00,Monday
7,-5.0
8,3.0
204,20.0
205,0.003549563476159792
206,1886630.2008789214
291,0.0
340,400.05583784474044
341,1.23216579897138e-13
342,3790249.2510590255
418,938.1609372497965
443,938.1609372497965
689,16.300696776685196
11,1876.321874499593
2,5, 1, 5, 0, 4, 0.00,60.00,Monday
7,-5.625
8,3.625
204,20.0
205,0.0036915673760460387
206,1925117.876671694
291,0.0
340,400.0487194086437
341,1.0750842794096768e-13
342,3885025.912064686
418,938.1609315195174
443,938.1609315195174
689,16.206946895556708
11,1876.3218630390347
2,5, 1, 5, 0, 5, 0.00,60.00,Monday
7,-6.0
8,3.375
204,20.0
205,0.003640952270052472
206,1938283.1974646556
291,0.0
340,400.0424383334274
341,9.364806836152625e-14
342,3941877.768598338
418,938.1609264460075
443,938.1609264460075
689,16.150697524030207
11,1876.321852892015
2,5, 1, 5, 0, 6, 0.00,60.00,Monday
7,-6.749999999999999
8,3.0
204,20.0
205,0.003576073678217608
206,1955007.7921765281
291,0.0
340,400.0370417771139