Program Version,EnergyPlus, Version 25.2.0-cf7368216c, YMD=2026.04.23 19:25
1,5,Environment Title[],Latitude[deg],Longitude[deg],Time Zone[],Elevation[m]
2,8,Day of Simulation[],Month[],Day of Month[],DST Indicator[1=yes 0=no],Hour[],StartMinute[],EndMinute[],DayType
3,5,Cumulative Day of Simulation[],Month[],Day of Month[],DST Indicator[1=yes 0=no],DayType  ! When Daily Meters Requested
4,2,Cumulative Days of Simulation[],Month[]  ! When Monthly Meters Requested
5,1,Cumulative Days of Simulation[] ! When Run Period Meters Requested
6,1,Calendar Year of Simulation[] ! When Annual Meters Requested
11,1,Electricity:Facility [J] !Hourly
End of Data Dictionary
1,ANNUAL,  50.39,  30.54,   2.00, 178.60
2,1, 1, 1, 0, 1, 0.00,60.00,Thursday
11,24992.049183998406
2,1, 1, 1, 0, 2, 0.00,60.00,Thursday
11,24992.049183998406
2,1, 1, 1, 0, 3, 0.00,60.00,Thursday
11,24992.049183998406
2,1, 1, 1, 0, 4, 0.00,60.00,Thursday
11,24992.049183998406
2,1, 1, 1, 0, 5, 0.00,60.00,Thursday
11,24992.049183998406
2,1, 1, 1, 0, 6, 0.00,60.00,Thursday
11,24992.049183998406
2,1, 1, 1, 0, 7, 0.00,60.00,Thursday
11,24992.049183998406
2,1, 1, 1, 0, 8, 0.00,60.00,Thursday
11,24992.049183998406
2,1, 1, 1, 0, 9, 0.00,60.00,Thursday
11,24992.049183998406
2,1, 1, 1, 0,10, 0.00,60.00,Thursday
11,6263792.049183998
2,1, 1, 1, 0,11, 0.00,60.00,Thursday
11,7613792.049183998
2,1, 1, 1, 0,12, 0.00,60.00,Thursday
11,7613792.049183998
2,1, 1, 1, 0,13, 0.00,60.00,Thursday
11,7613792.049183998
2,1, 1, 1, 0,14, 0.00,60.00,Thursday
11,243872.04918399846
2,1, 1, 1, 0,15, 0.00,60.00,Thursday
11,6263792.049183998
2,1, 1, 1, 0,16, 0.00,60.00,Thursday
11,7613792.049183998
2,1, 1, 1, 0,17, 0.00,60.00,Thursday
11,7613792.049183998
2,1, 1, 1, 0,18, 0.00,60.00,Thursday
11,7613792.049183998
2,1, 1, 1, 0,19, 0.00,60.00,Thursday
11,24992.049183998406
2,1, 1, 1, 0,20, 0.00,60.00,Thursday
11,24992.049183998406
2,1, 1, 1, 0,21, 0.00,60.00,Thursday
11,24992.049183998406
2,1, 1, 1, 0,22, 0.00,60.00,Thursday
11,24992.049183998406
2,1, 1, 1, 0,23, 0.00,60.00,Thursday
11,24992.049183998406
2,1, 1, 1, 0,24, 0.00,60.00,Thursday
11,24992.049183998406
2,2, 1, 2, 0, 1, 0.00,60.00,Friday
11,24992.049183998406
2,2, 1, 2, 0, 2, 0.00,60.00,Friday
11,24992.049183998406
2,2, 1, 2, 0, 3, 0.00,60.00,Friday
11,24992.049183998406
2,2, 1, 2, 0, 4, 0.00,60.00,Friday
11,24992.049183998406
2,2, 1, 2, 0, 5, 0.00,60.00,Friday
11,24992.049183998406
2,2, 1, 2, 0, 6, 0.00,60.00,Friday
11,24992.049183998406
2,2, 1, 2, 0, 7, 0.00,60.00,Friday
11,24992.049183998406
2,2, 1, 2, 0, 8, 0.00,60.00,Friday
11,24992.049183998406
2,2, 1, 2, 0, 9, 0.00,60.00,Friday
11,24992.049183998406
2,2, 1, 2, 0,10, 0.00,60.00,Friday
11,6263792.049183998
2,2, 1, 2, 0,11, 0.00,60.00,Friday
11,7613792.049183998
2,2, 1, 2, 0,12, 0.00,60.00,Friday
11,7613792.049183998
2,2, 1, 2, 0,13, 0.00,60.00,Friday
11,7613792.049183998
2,2, 1, 2, 0,14, 0.00,60.00,Friday
11,243872.04918399846
2,2, 1, 2, 0,15, 0.00,60.00,Friday
11,6263792.049183998
2,2, 1, 2, 0,16, 0.00,60.00,Friday
11,7613792.049183998
2,2, 1, 2, 0,17, 0.00,60.00,Friday
11,7613792.049183998
2,2, 1, 2, 0,18, 0.00,60.00,Friday
11,7613792.049183998
2,2, 1, 2, 0,19, 0.00,60.00,Friday
11,24992.049183998406
2,2, 1, 2, 0,20, 0.00,60.00,Friday
11,24992.049183998406
2,2, 1, 2, 0,21, 0.00,60.00,Friday
11,24992.049183998406
2,2, 1, 2, 0,22, 0.00,60.00,Friday
11,24992.049183998406
2,2, 1, 2, 0,23, 0.00,60.00,Friday
11,24992.049183998406
2,2, 1, 2, 0,24, 0.00,60.00,Friday
11,24992.049183998406
2,3, 1, 3, 0, 1, 0.00,60.00,Saturday
11,24992.049183998406
2,3, 1, 3, 0, 2, 0.00,60.00,Saturday
11,24992.049183998406
2,3, 1, 3, 0, 3, 0.00,60.00,Saturday
11,24992.049183998406
2,3, 1, 3, 0, 4, 0.00,60.00,Saturday
11,24992.049183998406
2,3, 1, 3, 0, 5, 0.00,60.00,Saturday
11,24992.049183998406
2,3, 1, 3, 0, 6, 0.00,60.00,Saturday
11,24992.049183998406
2,3, 1, 3, 0, 7, 0.00,60.00,Saturday
11,24992.049183998406
2,3, 1, 3, 0, 8, 0.00,60.00,Saturday
11,24992.049183998406
2,3, 1, 3, 0, 9, 0.00,60.00,Saturday
11,24992.049183998406
2,3, 1, 3, 0,10, 0.00,60.00,Saturday
11,24992.049183998406
2,3, 1, 3, 0,11, 0.00,60.00,Saturday
11,24992.049183998406
2,3, 1, 3, 0,12, 0.00,60.00,Saturday
11,24992.049183998406
2,3, 1, 3, 0,13, 0.00,60.00,Saturday
11,24992.049183998406
2,3, 1, 3, 0,14, 0.00,60.00,Saturday
11,24992.049183998406
2,3, 1, 3, 0,15, 0.00,60.00,Saturday
11,24992.049183998406
2,3, 1, 3, 0,16, 0.00,60.00,Saturday
11,24992.049183998406
2,3, 1, 3, 0,17, 0.00,60.00,Saturday
11,24992.049183998406
2,3, 1, 3, 0,18, 0.00,60.00,Saturday
11,24992.049183998406
2,3, 1, 3, 0,19, 0.00,60.00,Saturday
11,17686.393903378328
2,3, 1, 3, 0,20, 0.00,60.00,Saturday
11,4150.853617269055
2,3, 1, 3, 0,21, 0.00,60.00,Saturday
11,2071.962296086175
2,3, 1, 3, 0,22, 0.00,60.00,Saturday
11,1584.9145983016115
2,3, 1, 3, 0,23, 0.00,60.00,Saturday
11,1413.449353521167
2,3, 1, 3, 0,24, 0.00,60.00,Saturday
11,1337.2438220899157
2,4, 1, 4, 0, 1, 0.00,60.00,Sunday
11,1298.8067807218126
2,4, 1, 4, 0, 2, 0.00,60.00,Sunday
11,1278.103189423665
2,4, 1, 4, 0, 3, 0.00,60.00,Sunday
11,1266.5467337089533
2,4, 1, 4, 0, 4, 0.00,60.00,Sunday
11,1259.9556011422146
2,4, 1, 4, 0, 5, 0.00,60.00,Sunday
11,1256.1497068418118
2,4, 1, 4, 0, 6, 0.00,60.00,Sunday
11,1253.9475359952485
2,4, 1, 4, 0, 7, 0.00,60.00,Sunday
11,1252.668685354534
2,4, 1, 4, 0, 8, 0.00,60.00,Sunday
11,1251.9246210482875
2,4, 1, 4, 0, 9, 0.00,60.00,Sunday
11,1251.4914489197167
2,4, 1, 4, 0,10, 0.00,60.00,Sunday
11,1251.2379332314122
2,4, 1, 4, 0,11, 0.00,60.00,Sunday
11,1251.089001074528
2,4, 1, 4, 0,12, 0.00,60.00,Sunday
11,1251.0018136685908
2,4, 1, 4, 0,13, 0.00,60.00,Sunday
11,1250.9506691728072
2,4, 1, 4, 0,14, 0.00,60.00,Sunday
11,1250.9208973917582
2,4, 1, 4, 0,15, 0.00,60.00,Sunday
11,1250.9037966122476
2,4, 1, 4, 0,16, 0.00,60.00,Sunday
11,19056.761107010512
2,4, 1, 4, 0,17, 0.00,60.00,Sunday
11,24992.049183998406
2,4, 1, 4, 0,18, 0.00,60.00,Sunday
11,24992.049183998406
2,4, 1, 4, 0,19, 0.00,60.00,Sunday
11,24992.049183998406
2,4, 1, 4, 0,20, 0.00,60.00,Sunday
11,24992.049183998406
2,4, 1, 4, 0,21, 0.00,60.00,Sunday
11,24992.049183998406
2,4, 1, 4, 0,22, 0.00,60.00,Sunday
11,24992.049183998406
2,4, 1, 4, 0,23, 0.00,60.00,Sunday
11,24992.049183998406
2,4, 1, 4, 0,24, 0.00,60.00,Sunday
11,24992.049183998406
2,5, 1, 5, 0, 1, 0.00,60.00,Monday
11,24992.049183998406
2,5, 1, 5, 0, 2, 0.00,60.00,Monday
11,24992.049183998406
2,5, 1, 5, 0, 3, 0.00,60.00,Monday
11,24992.049183998406
2,5, 1, 5, 0, 4, 0.00,60.00,Monday
11,24992.049183998406
2,5, 1, 5, 0, 5, 0.00,60.00,Monday
11,24992.049183998406
2,5, 1, 5, 0, 6, 0.00,60.00,Monday
11,24992.049183998406
2,5, 1, 5, 0, 7, 0.00,60.00,Monday
11,24992.049183998406
2,5, 1, 5, 0, 8, 0.00,60.00,Monday
11,24992.049183998406
2,5, 1, 5, 0, 9, 0.00,60.00,Monday
11,24992.049183998406
2,5, 1, 5, 0,10, 0.00,60.00,Monday
11,6263792.049183998
2,5, 1, 5, 0,11, 0.00,60.00,Monday
11,7613792.049183998
2,5, 1, 5, 0,12, 0.00,60.00,Monday
11,7613792.049183998
2,5, 1, 5, 0,13, 0.00,60.00,Monday
11,7613792.049183998
2,5, 1, 5, 0,14, 0.00,60.00,Monday
11,243872.04918399846
2,5, 1, 5, 0,15, 0.00,60.00,Monday
11,6263792.049183998
2,5, 1, 5, 0,16, 0.00,60.00,Monday
11,7613792.049183998
2,5, 1, 5, 0,17, 0.00,60.00,Monday
11,7613792.049183998
2,5, 1, 5, 0,18, 0.00,60.00,Monday
11,7613792.049183998
2,5, 1, 5, 0,19, 0.00,60.00,Monday
11,24992.049183998406
2,5, 1, 5, 0,20, 0.00,60.00,Monday
11,24992.049183998406
2,5, 1, 5, 0,21, 0.00,60.00,Monday
11,17291.567249914853
2,5, 1, 5, 0,22, 0.00,60.00,Monday
11,4614.872287429685
2,5, 1, 5, 0,23, 0.00,60.00,Monday
11,2304.204928999357
2,5, 1, 5, 0,24, 0.00,60.00,Monday
11,1704.0029888371375
2,6, 1, 6, 0, 1, 0.00,60.00,Tuesday
11,1481.6026113291573
2,6, 1, 6, 0, 2, 0.00,60.00,Tuesday
11,1379.6894584846423
2,6, 1, 6, 0, 3, 0.00,60.00,Tuesday
11,1326.470786155051
2,6, 1, 6, 0, 4, 0.00,60.00,Tuesday
11,1296.3204360951609
2,6, 1, 6, 0, 5, 0.00,60.00,Tuesday
11,1278.7057871215518
2,6, 1, 6, 0, 6, 0.00,60.00,Tuesday
11,1268.137660702832
2,6, 1, 6, 0, 7, 0.00,60.00,Tuesday
11,1261.6273130072514
2,6, 1, 6, 0, 8, 0.00,60.00,Tuesday
11,1257.615654184441
2,6, 1, 6, 0, 9, 0.00,60.00,Tuesday
11,1255.1289626125429
2,6, 1, 6, 0,10, 0.00,60.00,Tuesday
11,6240317.310677659
2,6, 1, 6, 0,11, 0.00,60.00,Tuesday
11,7592062.799994494
2,6, 1, 6, 0,12, 0.00,60.00,Tuesday
11,7597130.081821583
2,6, 1, 6, 0,13, 0.00,60.00,Tuesday
11,7600496.58371253
2,6, 1, 6, 0,14, 0.00,60.00,Tuesday
11,227052.80566299893
2,6, 1, 6, 0,15, 0.00,60.00,Tuesday
11,6245600.136790575
2,6, 1, 6, 0,16, 0.00,60.00,Tuesday
11,7598929.888944713
2,6, 1, 6, 0,17, 0.00,60.00,Tuesday
11,7601151.62497763
2,6, 1, 6, 0,18, 0.00,60.00,Tuesday
11,7601628.663245473
2,6, 1, 6, 0,19, 0.00,60.00,Tuesday
11,6951.659753115144
2,6, 1, 6, 0,20, 0.00,60.00,Tuesday
11,3152.9176601051695
2,6, 1, 6, 0,21, 0.00,60.00,Tuesday
11,1705.3818966201889
2,6, 1, 6, 0,22, 0.00,60.00,Tuesday
11,1346.142829272445
2,6, 1, 6, 0,23, 0.00,60.00,Tuesday
11,1250.8816870298526
2,6, 1, 6, 0,24, 0.00,60.00,Tuesday
11,1250.8815026577076
2,7, 1, 7, 0, 1, 0.00,60.00,Wednesday
11,1250.8813866458017
2,7, 1, 7, 0, 2, 0.00,60.00,Wednesday
11,1250.8813139328172
2,7, 1, 7, 0, 3, 0.00,60.00,Wednesday
11,1250.8812684317095
2,7, 1, 7, 0, 4, 0.00,60.00,Wednesday
11,1250.8812395221692
2,7, 1, 7, 0, 5, 0.00,60.00,Wednesday
11,1250.8812212879943
2,7, 1, 7, 0, 6, 0.00,60.00,Wednesday
11,1250.8812097311036
2,7, 1, 7, 0, 7, 0.00,60.00,Wednesday
11,1250.8812023892206
2,7, 1, 7, 0, 8, 0.00,60.00,Wednesday
11,1250.8811977250227
2,7, 1, 7, 0, 9, 0.00,60.00,Wednesday
11,1250.881194764344
2,7, 1, 7, 0,10, 0.00,60.00,Wednesday
11,6240299.039969631
2,7, 1, 7, 0,11, 0.00,60.00,Wednesday
11,7592524.4312146995
2,7, 1, 7, 0,12, 0.00,60.00,Wednesday
11,7597695.469888739
2,7, 1, 7, 0,13, 0.00,60.00,Wednesday
11,7600535.272739087
2,7, 1, 7, 0,14, 0.00,60.00,Wednesday
11,226072.2389483301
2,7, 1, 7, 0,15, 0.00,60.00,Wednesday
11,6245035.048092719
2,7, 1, 7, 0,16, 0.00,60.00,Wednesday
11,7597944.284069271
2,7, 1, 7, 0,17, 0.00,60.00,Wednesday
11,7600772.008845685
2,7, 1, 7, 0,18, 0.00,60.00,Wednesday
11,7601665.703335339
2,7, 1, 7, 0,19, 0.00,60.00,Wednesday
11,7083.877287373022
2,7, 1, 7, 0,20, 0.00,60.00,Wednesday
11,3192.0933912174237
2,7, 1, 7, 0,21, 0.00,60.00,Wednesday
11,1710.5539705273152
2,7, 1, 7, 0,22, 0.00,60.00,Wednesday
11,1347.3518146268775
2,7, 1, 7, 0,23, 0.00,60.00,Wednesday
11,1250.881189545933
2,7, 1, 7, 0,24, 0.00,60.00,Wednesday
11,1250.8811895456479
2,8, 1, 8, 0, 1, 0.00,60.00,Thursday
11,1250.88118954547
2,8, 1, 8, 0, 2, 0.00,60.00,Thursday
11,1250.8811895453593
2,8, 1, 8, 0, 3, 0.00,60.00,Thursday
11,1250.8811895452898
2,8, 1, 8, 0, 4, 0.00,60.00,Thursday
11,1250.8811895452463
2,8, 1, 8, 0, 5, 0.00,60.00,Thursday
11,1250.8811895452193
2,8, 1, 8, 0, 6, 0.00,60.00,Thursday
11,1250.881189545202
2,8, 1, 8, 0, 7, 0.00,60.00,Thursday
11,1250.8811895451918
2,8, 1, 8, 0, 8, 0.00,60.00,Thursday
11,1250.8811895451852
2,8, 1, 8, 0, 9, 0.00,60.00,Thursday
11,1250.881189545181
2,8, 1, 8, 0,10, 0.00,60.00,Thursday
11,6240317.509336131
2,8, 1, 8, 0,11, 0.00,60.00,Thursday
11,7592699.418472687
2,8, 1, 8, 0,12, 0.00,60.00,Thursday
11,7598428.023261172
2,8, 1, 8, 0,13, 0.00,60.00,Thursday
11,7601264.289877187
2,8, 1, 8, 0,14, 0.00,60.00,Thursday
11,226396.87539359354
2,8, 1, 8, 0,15, 0.00,60.00,Thursday
11,6245335.241193412
2,8, 1, 8, 0,16, 0.00,60.00,Thursday
11,7598789.76991383
2,8, 1, 8, 0,17, 0.00,60.00,Thursday
11,7601351.445998556
2,8, 1, 8, 0,18, 0.00,60.00,Thursday
11,7602005.361005466
2,8, 1, 8, 0,19, 0.00,60.00,Thursday
11,8264.969500931918
2,8, 1, 8, 0,20, 0.00,60.00,Thursday
11,3737.5363305423416
2,8, 1, 8, 0,21, 0.00,60.00,Thursday
11,1852.7948844099287
2,8, 1, 8, 0,22, 0.00,60.00,Thursday
11,1395.2900175052343
2,8, 1, 8, 0,23, 0.00,60.00,Thursday
11,1256.357683306653
2,8, 1, 8, 0,24, 0.00,60.00,Thursday
11,1250.8811895451743
2,9, 1, 9, 0, 1, 0.00,60.00,Friday
11,1250.8811895451743
2,9, 1, 9, 0, 2, 0.00,60.00,Friday
11,1250.8811895451743
2,9, 1, 9, 0, 3, 0.00,60.00,Friday
11,1250.8811895451743
2,9, 1, 9, 0, 4, 0.00,60.00,Friday
11,1250.8811895451743
2,9, 1, 9, 0, 5, 0.00,60.00,Friday
11,1250.8811895451743
2,9, 1, 9, 0, 6, 0.00,60.00,Friday
11,1250.8811895451743
2,9, 1, 9, 0, 7, 0.00,60.00,Friday
11,1250.8811895451743
2,9, 1, 9, 0, 8, 0.00,60.00,Friday
11,1250.8811895451743
2,9, 1, 9, 0, 9, 0.00,60.00,Friday
11,1250.8811895451743
2,9, 1, 9, 0,10, 0.00,60.00,Friday
11,6240311.907866614
2,9, 1, 9, 0,11, 0.00,60.00,Friday
11,7592634.232257988
2,9, 1, 9, 0,12, 0.00,60.00,Friday
11,7598221.911605308
2,9, 1, 9, 0,13, 0.00,60.00,Friday
11,7601197.162143469
2,9, 1, 9, 0,14, 0.00,60.00,Friday
11,226417.07143552057
2,9, 1, 9, 0,15, 0.00,60.00,Friday
11,6245335.494904116
2,9, 1, 9, 0,16, 0.00,60.00,Friday
11,7609615.120210422
2,9, 1, 9, 0,17, 0.00,60.00,Friday
11,7613792.049183998
2,9, 1, 9, 0,18, 0.00,60.00,Friday
11,7613792.049183998
2,9, 1, 9, 0,19, 0.00,60.00,Friday
11,24992.049183998406
2,9, 1, 9, 0,20, 0.00,60.00,Friday
11,24992.049183998406
2,9, 1, 9, 0,21, 0.00,60.00,Friday
11,24992.049183998406
2,9, 1, 9, 0,22, 0.00,60.00,Friday
11,24992.049183998406
2,9, 1, 9, 0,23, 0.00,60.00,Friday
11,24992.049183998406
2,9, 1, 9, 0,24, 0.00,60.00,Friday
11,24992.049183998406
2,10, 1,10, 0, 1, 0.00,60.00,Saturday
11,24992.049183998406
2,10, 1,10, 0, 2, 0.00,60.00,Saturday
11,24992.049183998406
2,10, 1,10, 0, 3, 0.00,60.00,Saturday
11,24992.049183998406
2,10, 1,10, 0, 4, 0.00,60.00,Saturday
11,24992.049183998406
2,10, 1,10, 0, 5, 0.00,60.00,Saturday
11,24992.049183998406
2,10, 1,10, 0, 6, 0.00,60.00,Saturday
11,24992.049183998406
2,10, 1,10, 0, 7, 0.00,60.00,Saturday
11,24992.049183998406
2,10, 1,10, 0, 8, 0.00,60.00,Saturday
11,24992.049183998406
2,10, 1,10, 0, 9, 0.00,60.00,Saturday
11,24992.049183998406
2,10, 1,10, 0,10, 0.00,60.00,Saturday
11,24992.049183998406
2,10, 1,10, 0,11, 0.00,60.00,Saturday
11,24992.049183998406
2,10, 1,10, 0,12, 0.00,60.00,Saturday
11,24992.049183998406
2,10, 1,10, 0,13, 0.00,60.00,Saturday
11,24992.049183998406
2,10, 1,10, 0,14, 0.00,60.00,Saturday
11,24992.049183998406
2,10, 1,10, 0,15, 0.00,60.00,Saturday
11,24992.049183998406
2,10, 1,10, 0,16, 0.00,60.00,Saturday
11,24992.049183998406
2,10, 1,10, 0,17, 0.00,60.00,Saturday
11,24992.049183998406
2,10, 1,10, 0,18, 0.00,60.00,Saturday
11,24992.049183998406
2,10, 1,10, 0,19, 0.00,60.00,Saturday
11,24992.049183998406
2,10, 1,10, 0,20, 0.00,60.00,Saturday
11,24992.049183998406
2,10, 1,10, 0,21, 0.00,60.00,Saturday
11,24992.049183998406
2,10, 1,10, 0,22, 0.00,60.00,Saturday
11,24992.049183998406
2,10, 1,10, 0,23, 0.00,60.00,Saturday
11,15953.322536095806
2,10, 1,10, 0,24, 0.00,60.00,Saturday
11,4434.608479321958
2,11, 1,11, 0, 1, 0.00,60.00,Sunday
11,2312.126146751831
2,11, 1,11, 0, 2, 0.00,60.00,Sunday
11,1724.0765945540863
2,11, 1,11, 0, 3, 0.00,60.00,Sunday
11,1499.6371651776944
2,11, 1,11, 0, 4, 0.00,60.00,Sunday
11,1393.0373309900199
2,11, 1,11, 0, 5, 0.00,60.00,Sunday
11,1335.95612575645
2,11, 1,11, 0, 6, 0.00,60.00,Sunday
11,1303.3932015378314
2,11, 1,11, 0, 7, 0.00,60.00,Sunday
11,1283.7728157226045
2,11, 1,11, 0, 8, 0.00,60.00,Sunday
11,1271.613593849509
2,11, 1,11, 0, 9, 0.00,60.00,Sunday
11,1263.9983921654175
2,11, 1,11, 0,10, 0.00,60.00,Sunday
11,1259.1683659616283
2,11, 1,11, 0,11, 0.00,60.00,Sunday
11,1256.0924575743693
2,11, 1,11, 0,12, 0.00,60.00,Sunday
11,1254.1287331540973
2,11, 1,11, 0,13, 0.00,60.00,Sunday
11,1252.8789576377908
2,11, 1,11, 0,14, 0.00,60.00,Sunday
11,1252.0983694210047
2,11, 1,11, 0,15, 0.00,60.00,Sunday
11,1251.6170255295247
2,11, 1,11, 0,16, 0.00,60.00,Sunday
11,19056.890459648817
2,11, 1,11, 0,17, 0.00,60.00,Sunday
11,24992.049183998406
2,11, 1,11, 0,18, 0.00,60.00,Sunday
11,24992.049183998406
2,11, 1,11, 0,19, 0.00,60.00,Sunday
11,24992.049183998406
2,11, 1,11, 0,20, 0.00,60.00,Sunday
11,24992.049183998406
2,11, 1,11, 0,21, 0.00,60.00,Sunday
11,24992.049183998406
2,11, 1,11, 0,22, 0.00,60.00,Sunday
11,24992.049183998406
2,11, 1,11, 0,23, 0.00,60.00,Sunday
11,24992.049183998406
2,11, 1,11, 0,24, 0.00,60.00,Sunday
11,24992.049183998406
2,12, 1,12, 0, 1, 0.00,60.00,Monday
11,24992.049183998406
2,12, 1,12, 0, 2, 0.00,60.00,Monday
11,24992.049183998406
2,12, 1,12, 0, 3, 0.00,60.00,Monday
11,24992.049183998406
2,12, 1,12, 0, 4, 0.00,60.00,Monday
11,24992.049183998406
2,12, 1,12, 0, 5, 0.00,60.00,Monday
11,24992.049183998406
2,12, 1,12, 0, 6, 0.00,60.00,Monday
11,24992.049183998406
2,12, 1,12, 0, 7, 0.00,60.00,Monday
11,24992.049183998406
2,12, 1,12, 0, 8, 0.00,60.00,Monday
11,24992.049183998406
2,12, 1,12, 0, 9, 0.00,60.00,Monday
11,24992.049183998406
2,12, 1,12, 0,10, 0.00,60.00,Monday
11,6263792.049183998
2,12, 1,12, 0,11, 0.00,60.00,Monday
11,7613792.049183998
2,12, 1,12, 0,12, 0.00,60.00,Monday
11,7613792.049183998
2,12, 1,12, 0,13, 0.00,60.00,Monday
11,7613792.049183998
2,12, 1,12, 0,14, 0.00,60.00,Monday
11,243872.04918399846
2,12, 1,12, 0,15, 0.00,60.00,Monday
11,6263792.049183998
2,12, 1,12, 0,16, 0.00,60.00,Monday
11,7613792.049183998
2,12, 1,12, 0,17, 0.00,60.00,Monday
11,7613792.049183998
2,12, 1,12, 0,18, 0.00,60.00,Monday
11,7613792.049183998
2,12, 1,12, 0,19, 0.00,60.00,Monday
11,24992.049183998406
2,12, 1,12, 0,20, 0.00,60.00,Monday
11,24992.049183998406
2,12, 1,12, 0,21, 0.00,60.00,Monday
11,24992.049183998406
2,12, 1,12, 0,22, 0.00,60.00,Monday
11,24992.049183998406
2,12, 1,12, 0,23, 0.00,60.00,Monday
11,24992.049183998406
2,12, 1,12, 0,24, 0.00,60.00,Monday
11,16215.08325778683
2,13, 1,13, 0, 1, 0.00,60.00,Tuesday
11,4473.708223511842
2,13, 1,13, 0, 2, 0.00,60.00,Tuesday
11,2313.1628201138165
2,13, 1,13, 0, 3, 0.00,60.00,Tuesday
11,1723.4077530679615
2,13, 1,13, 0, 4, 0.00,60.00,Tuesday
11,1495.2127849782896
2,13, 1,13, 0, 5, 0.00,60.00,Tuesday
11,1388.3983403287666
2,13, 1,13, 0, 6, 0.00,60.00,Tuesday
11,1332.4439232003015
2,13, 1,13, 0, 7, 0.00,60.00,Tuesday
11,1300.2174298730724
2,13, 1,13, 0, 8, 0.00,60.00,Tuesday
11,1281.430950799309
2,13, 1,13, 0, 9, 0.00,60.00,Tuesday
11,1270.1825486849882
2,13, 1,13, 0,10, 0.00,60.00,Tuesday
11,6240332.456037898
2,13, 1,13, 0,11, 0.00,60.00,Tuesday
11,7592795.101269514
2,13, 1,13, 0,12, 0.00,60.00,Tuesday
11,7598657.771740438
2,13, 1,13, 0,13, 0.00,60.00,Tuesday
11,7601701.6495855
2,13, 1,13, 0,14, 0.00,60.00,Tuesday
11,227783.00609961053
2,13, 1,13, 0,15, 0.00,60.00,Tuesday
11,6246124.726265615
2,13, 1,13, 0,16, 0.00,60.00,Tuesday
11,7600686.202669698
2,13, 1,13, 0,17, 0.00,60.00,Tuesday
11,7602252.176211344
2,13, 1,13, 0,18, 0.00,60.00,Tuesday
11,7602518.489777071
2,13, 1,13, 0,19, 0.00,60.00,Tuesday
11,7372.2373287809505
2,13, 1,13, 0,20, 0.00,60.00,Tuesday
11,3245.137685157271
2,13, 1,13, 0,21, 0.00,60.00,Tuesday
11,1698.9881424109597
2,13, 1,13, 0,22, 0.00,60.00,Tuesday
11,1337.8895603490473
2,13, 1,13, 0,23, 0.00,60.00,Tuesday
11,1250.8822274263234
2,13, 1,13, 0,24, 0.00,60.00,Tuesday
11,1250.8818290680135
2,14, 1,14, 0, 1, 0.00,60.00,Wednesday
11,1250.8815843704117
2,14, 1,14, 0, 2, 0.00,60.00,Wednesday
11,1250.8814342224896
2,14, 1,14, 0, 3, 0.00,60.00,Wednesday
11,1250.8813415687916
2,14, 1,14, 0, 4, 0.00,60.00,Wednesday
11,1250.881283999489
2,14, 1,14, 0, 5, 0.00,60.00,Wednesday
11,1250.881248182913
2,14, 1,14, 0, 6, 0.00,60.00,Wednesday
11,1250.8812260228383
2,14, 1,14, 0, 7, 0.00,60.00,Wednesday
11,1250.881212253048
2,14, 1,14, 0, 8, 0.00,60.00,Wednesday
11,1250.8812036466834
2,14, 1,14, 0, 9, 0.00,60.00,Wednesday
11,1250.8811982956518
2,14, 1,14, 0,10, 0.00,60.00,Wednesday
11,6240324.628490483
2,14, 1,14, 0,11, 0.00,60.00,Wednesday
11,7592868.47923104
2,14, 1,14, 0,12, 0.00,60.00,Wednesday
11,7598971.4467532635
2,14, 1,14, 0,13, 0.00,60.00,Wednesday
11,7601810.607397733
2,14, 1,14, 0,14, 0.00,60.00,Wednesday
11,226439.26903356527
2,14, 1,14, 0,15, 0.00,60.00,Wednesday
11,6244945.906378631
2,14, 1,14, 0,16, 0.00,60.00,Wednesday
11,7600229.658933738
2,14, 1,14, 0,17, 0.00,60.00,Wednesday
11,7602198.860145662
2,14, 1,14, 0,18, 0.00,60.00,Wednesday
11,7602648.438482221
2,14, 1,14, 0,19, 0.00,60.00,Wednesday
11,7469.60767093754
2,14, 1,14, 0,20, 0.00,60.00,Wednesday
11,3217.0854903064987
2,14, 1,14, 0,21, 0.00,60.00,Wednesday
11,1657.742301173214
2,14, 1,14, 0,22, 0.00,60.00,Wednesday
11,1313.279940871333
2,14, 1,14, 0,23, 0.00,60.00,Wednesday
11,1250.8811895454805
2,14, 1,14, 0,24, 0.00,60.00,Wednesday
11,1250.8811895453575
2,15, 1,15, 0, 1, 0.00,60.00,Thursday
11,1250.8811895452839
2,15, 1,15, 0, 2, 0.00,60.00,Thursday
11,1250.88118954524
2,15, 1,15, 0, 3, 0.00,60.00,Thursday
11,1250.8811895452136
2,15, 1,15, 0, 4, 0.00,60.00,Thursday
11,1250.881189545198
2,15, 1,15, 0, 5, 0.00,60.00,Thursday
11,1250.8811895451884
2,15, 1,15, 0, 6, 0.00,60.00,Thursday
11,1250.8811895451827
2,15, 1,15, 0, 7, 0.00,60.00,Thursday
11,1250.8811895451795
2,15, 1,15, 0, 8, 0.00,60.00,Thursday
11,1250.8811895451772
2,15, 1,15, 0, 9, 0.00,60.00,Thursday
11,1250.881189545176
2,15, 1,15, 0,10, 0.00,60.00,Thursday
11,6240381.47157843
2,15, 1,15, 0,11, 0.00,60.00,Thursday
11,7593751.429607238
2,15, 1,15, 0,12, 0.00,60.00,Thursday
11,7599604.535161389
2,15, 1,15, 0,13, 0.00,60.00,Thursday
11,7601919.05587509
2,15, 1,15, 0,14, 0.00,60.00,Thursday
11,226679.2631134988
2,15, 1,15, 0,15, 0.00,60.00,Thursday
11,6245452.119134892
2,15, 1,15, 0,16, 0.00,60.00,Thursday
11,7599013.137872221
2,15, 1,15, 0,17, 0.00,60.00,Thursday
11,7601813.091819516
2,15, 1,15, 0,18, 0.00,60.00,Thursday
11,7602503.468523011
2,15, 1,15, 0,19, 0.00,60.00,Thursday
11,7464.533293582464
2,15, 1,15, 0,20, 0.00,60.00,Thursday
11,3228.633604393425
2,15, 1,15, 0,21, 0.00,60.00,Thursday
11,1667.7550935881272
2,15, 1,15, 0,22, 0.00,60.00,Thursday
11,1317.7891211354997
2,15, 1,15, 0,23, 0.00,60.00,Thursday
11,1250.8811895451743
2,15, 1,15, 0,24, 0.00,60.00,Thursday
11,1250.8811895451743
2,16, 1,16, 0, 1, 0.00,60.00,Friday
11,1250.8811895451743
2,16, 1,16, 0, 2, 0.00,60.00,Friday
11,1250.8811895451743
2,16, 1,16, 0, 3, 0.00,60.00,Friday
11,1250.8811895451743
2,16, 1,16, 0, 4, 0.00,60.00,Friday
11,1250.8811895451743
2,16, 1,16, 0, 5, 0.00,60.00,Friday
11,1250.8811895451743
2,16, 1,16, 0, 6, 0.00,60.00,Friday
11,1250.8811895451743
2,16, 1,16, 0, 7, 0.00,60.00,Friday
11,1250.8811895451743
2,16, 1,16, 0, 8, 0.00,60.00,Friday
11,1250.8811895451743
2,16, 1,16, 0, 9, 0.00,60.00,Friday
11,1250.8811895451743
2,16, 1,16, 0,10, 0.00,60.00,Friday
11,6240327.180211061
2,16, 1,16, 0,11, 0.00,60.00,Friday
11,7592861.017926527
2,16, 1,16, 0,12, 0.00,60.00,Friday
11,7598813.604279524
2,16, 1,16, 0,13, 0.00,60.00,Friday
11,7601644.674073495
2,16, 1,16, 0,14, 0.00,60.00,Friday
11,226610.31248825075
2,16, 1,16, 0,15, 0.00,60.00,Friday
11,6245402.3104818845
2,16, 1,16, 0,16, 0.00,60.00,Friday
11,7609632.312367887
2,16, 1,16, 0,17, 0.00,60.00,Friday
11,7613792.049183998
2,16, 1,16, 0,18, 0.00,60.00,Friday
11,7613792.049183998
2,16, 1,16, 0,19, 0.00,60.00,Friday
11,24992.049183998406
2,16, 1,16, 0,20, 0.00,60.00,Friday
11,24992.049183998406
2,16, 1,16, 0,21, 0.00,60.00,Friday
11,24992.049183998406
2,16, 1,16, 0,22, 0.00,60.00,Friday
11,24992.049183998406
2,16, 1,16, 0,23, 0.00,60.00,Friday
11,24992.049183998406
2,16, 1,16, 0,24, 0.00,60.00,Friday
11,24992.049183998406
2,17, 1,17, 0, 1, 0.00,60.00,Saturday
11,24992.049183998406
2,17, 1,17, 0, 2, 0.00,60.00,Saturday
11,24992.049183998406
2,17, 1,17, 0, 3, 0.00,60.00,Saturday
11,24992.049183998406
2,17, 1,17, 0, 4, 0.00,60.00,Saturday
11,24992.049183998406
2,17, 1,17, 0, 5, 0.00,60.00,Saturday
11,24992.049183998406
2,17, 1,17, 0, 6, 0.00,60.00,Saturday
11,24992.049183998406
2,17, 1,17, 0, 7, 0.00,60.00,Saturday
11,24992.049183998406
2,17, 1,17, 0, 8, 0.00,60.00,Saturday
11,24992.049183998406
2,17, 1,17, 0, 9, 0.00,60.00,Saturday
11,24992.049183998406
2,17, 1,17, 0,10, 0.00,60.00,Saturday
11,24992.049183998406
2,17, 1,17, 0,11, 0.00,60.00,Saturday
11,24992.049183998406
2,17, 1,17, 0,12, 0.00,60.00,Saturday
11,24992.049183998406
2,17, 1,17, 0,13, 0.00,60.00,Saturday
11,24992.049183998406
2,17, 1,17, 0,14, 0.00,60.00,Saturday
11,24992.049183998406
2,17, 1,17, 0,15, 0.00,60.00,Saturday
11,24992.049183998406
2,17, 1,17, 0,16, 0.00,60.00,Saturday
11,24992.049183998406
2,17, 1,17, 0,17, 0.00,60.00,Saturday
11,24992.049183998406
2,17, 1,17, 0,18, 0.00,60.00,Saturday
11,24992.049183998406
2,17, 1,17, 0,19, 0.00,60.00,Saturday
11,24992.049183998406
2,17, 1,17, 0,20, 0.00,60.00,Saturday
11,24992.049183998406
2,17, 1,17, 0,21, 0.00,60.00,Saturday
11,24992.049183998406
2,17, 1,17, 0,22, 0.00,60.00,Saturday
11,24992.049183998406
2,17, 1,17, 0,23, 0.00,60.00,Saturday
11,11910.027414472108
2,17, 1,17, 0,24, 0.00,60.00,Saturday
11,3660.3679567189024
2,18, 1,18, 0, 1, 0.00,60.00,Sunday
11,2105.417778769958
2,18, 1,18, 0, 2, 0.00,60.00,Sunday
11,1643.8026034073462
2,18, 1,18, 0, 3, 0.00,60.00,Sunday
11,1459.3286900597734
2,18, 1,18, 0, 4, 0.00,60.00,Sunday
11,1369.8171431178207
2,18, 1,18, 0, 5, 0.00,60.00,Sunday
11,1321.3874390464648
2,18, 1,18, 0, 6, 0.00,60.00,Sunday
11,1293.6995887142916
2,18, 1,18, 0, 7, 0.00,60.00,Sunday
11,1277.2480172432286
2,18, 1,18, 0, 8, 0.00,60.00,Sunday
11,1267.24957641199
2,18, 1,18, 0, 9, 0.00,60.00,Sunday
11,1261.1031217339073
2,18, 1,18, 0,10, 0.00,60.00,Sunday
11,1257.277944816694
2,18, 1,18, 0,11, 0.00,60.00,Sunday
11,1254.8879803054856
2,18, 1,18, 0,12, 0.00,60.00,Sunday
11,1253.3920883247133
2,18, 1,18, 0,13, 0.00,60.00,Sunday
11,1252.45223896995
2,18, 1,18, 0,14, 0.00,60.00,Sunday
11,1251.8622360965487
2,18, 1,18, 0,15, 0.00,60.00,Sunday
11,1251.493587569935
2,18, 1,18, 0,16, 0.00,60.00,Sunday
11,1251.263965367652
2,18, 1,18, 0,17, 0.00,60.00,Sunday
11,1251.1208267714908
2,18, 1,18, 0,18, 0.00,60.00,Sunday
11,1251.0314239584359
2,18, 1,18, 0,19, 0.00,60.00,Sunday
11,1250.9754594581516
2,18, 1,18, 0,20, 0.00,60.00,Sunday
11,1250.940378516795
2,18, 1,18, 0,21, 0.00,60.00,Sunday
11,1250.9183661535849
2,18, 1,18, 0,22, 0.00,60.00,Sunday
11,1250.90455390701
2,18, 1,18, 0,23, 0.00,60.00,Sunday
11,1250.8958816568124
2,18, 1,18, 0,24, 0.00,60.00,Sunday
11,1250.8904332425977
2,19, 1,19, 0, 1, 0.00,60.00,Monday
11,1250.8870076870846
2,19, 1,19, 0, 2, 0.00,60.00,Monday
11,1250.8848529457905
2,19, 1,19, 0, 3, 0.00,60.00,Monday
11,1250.8834968543374
2,19, 1,19, 0, 4, 0.00,60.00,Monday
11,1250.8826429880655
2,19, 1,19, 0, 5, 0.00,60.00,Monday
11,1250.8821053829997
2,19, 1,19, 0, 6, 0.00,60.00,Monday
11,1250.8817668029603
2,19, 1,19, 0, 7, 0.00,60.00,Monday
11,1250.881553782835
2,19, 1,19, 0, 8, 0.00,60.00,Monday
11,1250.8814202377175
2,19, 1,19, 0, 9, 0.00,60.00,Monday
11,1250.8813360572158
2,19, 1,19, 0,10, 0.00,60.00,Monday
11,6240292.643788379
2,19, 1,19, 0,11, 0.00,60.00,Monday
11,7592525.69499667
2,19, 1,19, 0,12, 0.00,60.00,Monday
11,7597931.095393317
2,19, 1,19, 0,13, 0.00,60.00,Monday
11,7600982.990056302
2,19, 1,19, 0,14, 0.00,60.00,Monday
11,227460.17889131673
2,19, 1,19, 0,15, 0.00,60.00,Monday
11,6245849.701797514
2,19, 1,19, 0,16, 0.00,60.00,Monday
11,7598716.768931875
2,19, 1,19, 0,17, 0.00,60.00,Monday
11,7601297.368356944
2,19, 1,19, 0,18, 0.00,60.00,Monday
11,7602089.451985701
2,19, 1,19, 0,19, 0.00,60.00,Monday
11,7332.488838193074
2,19, 1,19, 0,20, 0.00,60.00,Monday
11,3276.9085153550686
2,19, 1,19, 0,21, 0.00,60.00,Monday
11,1731.2031921822204
2,19, 1,19, 0,22, 0.00,60.00,Monday
11,1355.2251806418178
2,19, 1,19, 0,23, 0.00,60.00,Monday
11,1250.8811895730626
2,19, 1,19, 0,24, 0.00,60.00,Monday
11,1250.8811895625897
2,20, 1,20, 0, 1, 0.00,60.00,Tuesday
11,1250.8811895560732
2,20, 1,20, 0, 2, 0.00,60.00,Tuesday
11,1250.8811895520018
2,20, 1,20, 0, 3, 0.00,60.00,Tuesday
11,1250.8811895494523
2,20, 1,20, 0, 4, 0.00,60.00,Tuesday
11,1250.8811895478584
2,20, 1,20, 0, 5, 0.00,60.00,Tuesday
11,1250.8811895468598
2,20, 1,20, 0, 6, 0.00,60.00,Tuesday
11,1250.8811895462309
2,20, 1,20, 0, 7, 0.00,60.00,Tuesday
11,1250.881189545837
2,20, 1,20, 0, 8, 0.00,60.00,Tuesday
11,1250.8811895455897
2,20, 1,20, 0, 9, 0.00,60.00,Tuesday
11,1250.8811895454328
2,20, 1,20, 0,10, 0.00,60.00,Tuesday
11,6240302.063600637
2,20, 1,20, 0,11, 0.00,60.00,Tuesday
11,7592621.008188853
2,20, 1,20, 0,12, 0.00,60.00,Tuesday
11,7598259.460251999
2,20, 1,20, 0,13, 0.00,60.00,Tuesday
11,7601309.058403077
2,20, 1,20, 0,14, 0.00,60.00,Tuesday
11,227506.8582820502
2,20, 1,20, 0,15, 0.00,60.00,Tuesday
11,6245138.079088241
2,20, 1,20, 0,16, 0.00,60.00,Tuesday
11,7598822.198240429
2,20, 1,20, 0,17, 0.00,60.00,Tuesday
11,7601717.071629291
2,20, 1,20, 0,18, 0.00,60.00,Tuesday
11,7602440.944404606
2,20, 1,20, 0,19, 0.00,60.00,Tuesday
11,7417.11563805162
2,20, 1,20, 0,20, 0.00,60.00,Tuesday
11,3272.4484775776664
2,20, 1,20, 0,21, 0.00,60.00,Tuesday
11,1710.7354158368685
2,20, 1,20, 0,22, 0.00,60.00,Tuesday
11,1344.9230597567384
2,20, 1,20, 0,23, 0.00,60.00,Tuesday
11,1250.8811895451743
2,20, 1,20, 0,24, 0.00,60.00,Tuesday
11,1250.8811895451743
2,21, 1,21, 0, 1, 0.00,60.00,Wednesday
11,1250.8811895451743
2,21, 1,21, 0, 2, 0.00,60.00,Wednesday
11,1250.8811895451743
2,21, 1,21, 0, 3, 0.00,60.00,Wednesday
11,1250.8811895451743
2,21, 1,21, 0, 4, 0.00,60.00,Wednesday
11,1250.8811895451743
2,21, 1,21, 0, 5, 0.00,60.00,Wednesday
11,1250.8811895451743
2,21, 1,21, 0, 6, 0.00,60.00,Wednesday
11,1250.8811895451743
2,21, 1,21, 0, 7, 0.00,60.00,Wednesday
11,1250.8811895451743
2,21, 1,21, 0, 8, 0.00,60.00,Wednesday
11,1250.8811895451743
2,21, 1,21, 0, 9, 0.00,60.00,Wednesday
11,1250.8811895451743
2,21, 1,21, 0,10, 0.00,60.00,Wednesday
11,6240304.106542552
2,21, 1,21, 0,11, 0.00,60.00,Wednesday
11,7592631.773615658
2,21, 1,21, 0,12, 0.00,60.00,Wednesday
11,7598250.785321657
2,21, 1,21, 0,13, 0.00,60.00,Wednesday
11,7601347.621072178
2,21, 1,21, 0,14, 0.00,60.00,Wednesday
11,227489.44355794383
2,21, 1,21, 0,15, 0.00,60.00,Wednesday
11,6245107.263453532
2,21, 1,21, 0,16, 0.00,60.00,Wednesday
11,7609571.693855441
2,21, 1,21, 0,17, 0.00,60.00,Wednesday
11,7613792.049183998
2,21, 1,21, 0,18, 0.00,60.00,Wednesday
11,7613792.049183998
2,21, 1,21, 0,19, 0.00,60.00,Wednesday
11,24992.049183998406
2,21, 1,21, 0,20, 0.00,60.00,Wednesday
11,24992.049183998406
2,21, 1,21, 0,21, 0.00,60.00,Wednesday
11,24992.049183998406
2,21, 1,21, 0,22, 0.00,60.00,Wednesday
11,24992.049183998406