Program Version,EnergyPlus, Version 25.2.0-cf7368216c, YMD=2026.04.23 19:25
1,5,Environment Title[],Latitude[deg],Longitude[deg],Time Zone[],Elevation[m]
2,8,Day of Simulation[],Month[],Day of Month[],DST Indicator[1=yes 0=no],Hour[],StartMinute[],EndMinute[],DayType
3,5,Cumulative Day of Simulation[],Month[],Day of Month[],DST Indicator[1=yes 0=no],DayType  ! When Daily Report Variables Requested
4,2,Cumulative Days of Simulation[],Month[]  ! When Monthly Report Variables Requested
5,1,Cumulative Days of Simulation[] ! When Run Period Report Variables Requested
6,1,Calendar Year of Simulation[] ! When Annual Report Variables Requested
7,1,Environment,Site Outdoor Air Drybulb Temperature [C] !Hourly
8,1,Environment,Site Wind Speed [m/s] !Hourly
204,1,MAINZONE,Zone Mean Air Temperature [C] !Hourly
205,1,MAINZONE,Zone Infiltration Standard Density Volume Flow Rate [m3/s] !Hourly
206,1,MAINZONE,Zone Air System Sensible Heating Energy [J] !Hourly
291,1,MAINZONE,Zone Air System Sensible Cooling Energy [J] !Hourly
340,1,MAINZONE,Zone Air CO2 Concentration [ppm] !Hourly
341,1,MAINZONE,Zone Air Generic Air Contaminant Concentration [ppm] !Hourly
342,1,LAB_HX,Heat Exchanger Sensible Heating Energy [J] !Hourly
418,1,SUPPLY_FAN,Fan Electricity Energy [J] !Hourly
443,1,EXHAUST_FAN,Fan Electricity Energy [J] !Hourly
689,1,ERV_SA_OUTLET,System Node Temperature [C] !Hourly
11,1,Electricity:Facility [J] !Hourly
End of Data Dictionary
1,ANNUAL,  50.39,  30.54,   2.00, 178.60
2,1, 1, 1, 0, 1, 0.00,60.00,Thursday
7,-7.05
8,2.375
204,19.12552141357962
205,0.03614003655228041
206,2649244.507416964
291,0.0
340,400.66711329150786
341,28.917285753226786
342,2661930.386055754
418,12496.024591999203
443,12496.024591999203
689,15.443882353615217
11,24992.049183998406
2,1, 1, 1, 0, 2, 0.00,60.00,Thursday
7,-9.625
8,1.375
204,18.655565797027943
205,0.03647647113839879
206,2583559.6445248686
291,0.0
340,400.2619694224478
341,11.355559612154865
342,2862828.8823796846
418,12496.024591999203
443,12496.024591999203
689,14.572490996426652
11,24992.049183998406
2,1, 1, 1, 0, 3, 0.00,60.00,Thursday
7,-9.0625
8,1.625
204,18.58917746839
205,0.036630935017320565
206,2570049.0927626444
291,0.0
340,400.1049157130079
341,4.547769816305453
342,2791956.7588008344
418,12496.024591999203
443,12496.024591999203
689,14.538692961456404
11,24992.049183998406
2,1, 1, 1, 0, 4, 0.00,60.00,Thursday
7,-10.0625
8,0.75
204,18.463518516181832
205,0.03668481191256412
206,2581610.2472509816
291,0.0
340,400.04216941023327
341,1.8279127648577376
342,2887079.5419713575
418,12496.024591999203
443,12496.024591999203
689,14.346986123418201
11,24992.049183998406
2,1, 1, 1, 0, 5, 0.00,60.00,Thursday
7,-11.0
8,0.0
204,18.26549616813105
205,0.03667670643563044
206,2552727.8238964025
291,0.0
340,400.0171780550626
341,0.7446152542901427
342,2957079.8157606716
418,12496.024591999203
443,12496.024591999203
689,14.000869161516878
11,24992.049183998406
2,1, 1, 1, 0, 6, 0.00,60.00,Thursday
7,-9.625
8,1.25
204,18.314463415953657
205,0.03667178489025981
206,2554305.0160655254
291,0.0
340,400.0070408811193
341,0.30520029572506024
342,2817870.310193384
418,12496.024591999203
443,12496.024591999203
689,14.197893962456547
11,24992.049183998406
2,1, 1, 1, 0, 7, 0.00,60.00,Thursday
7,-9.55
8,1.375
204,18.31971953189381
205,0.0365872673062901
206,2579758.8650811515
291,0.0
340,400.00287422431546
341,0.12458868374286555
342,2817242.8785644886
418,12496.024591999203
443,12496.024591999203
689,14.268975029534287
11,24992.049183998406
2,1, 1, 1, 0, 8, 0.00,60.00,Thursday
7,-10.625
8,1.0
204,18.152287968252015
205,0.0366267829355536
206,2568518.0182109172
291,0.0
340,400.0011800898345
341,0.05115322362956094
342,2909454.5464062276
418,12496.024591999203
443,12496.024591999203
689,13.975885539460656
11,24992.049183998406
2,1, 1, 1, 0, 9, 0.00,60.00,Thursday
7,-8.75
8,1.625
204,18.30887657431384
205,0.03650054968427291
206,2538152.2851549126
291,0.0
340,400.0004875062716
341,0.021131880474020124
342,2720240.20108003
418,12496.024591999203
443,12496.024591999203
689,14.2470157924577
11,24992.049183998406
2,1, 1, 1, 0,10, 0.00,60.00,Thursday
7,-9.025
8,1.375
204,20.0980516470949
205,0.03648310718041291
206,611483.6795746718
291,404590.1079052554
340,517.6592113212853
341,0.010074360519454907
342,2919335.366524673
418,12496.024591999203
443,12496.024591999203
689,15.649792181070385
11,6263792.049183998
2,1, 1, 1, 0,11, 0.00,60.00,Thursday
7,-8.125
8,1.625
204,21.118232022980635
205,0.0362704596277659
206,0.0
291,534135.0138534467
340,638.9416691887866
341,0.004816419063654468
342,2933467.7277745944
418,12496.024591999203
443,12496.024591999203
689,16.663813164021136
11,7613792.049183998
2,1, 1, 1, 0,12, 0.00,60.00,Thursday
7,-5.000000000000001
8,2.625
204,22.136977439214547
205,0.035950453548367955
206,0.0
291,495915.45396671706
340,721.5199598015928
341,0.0013512580803306579
342,2720698.9546253686
418,12496.024591999203
443,12496.024591999203
689,17.98994594807105
11,7613792.049183998
2,1, 1, 1, 0,13, 0.00,60.00,Thursday
7,-3.925
8,3.625
204,22.692040113458912
205,0.035763309954727616
206,0.0
291,473084.45691409707
340,744.6587108863087
341,0.0004262927843846946
342,2681389.3582249284
418,12496.024591999203
443,12496.024591999203
689,18.730941322267192
11,7613792.049183998
2,1, 1, 1, 0,14, 0.00,60.00,Thursday
7,-2.75
8,4.0
204,20.470938721815383
205,0.03554644316760332
206,0.0
291,377789.5342792899
340,662.765284597526
341,0.0001950565465320646
342,2372280.1059492845
418,12496.024591999203
443,12496.024591999203
689,17.304580391024036
11,243872.04918399846
2,1, 1, 1, 0,15, 0.00,60.00,Thursday
7,-0.8750000000000001
8,4.625
204,21.927559189502496
205,0.03531471659335275
206,0.0
291,422608.1719404111
340,660.5835168512208
341,0.00011477856542362652
342,2279544.980571077
418,12496.024591999203
443,12496.024591999203
689,18.383309340482327
11,6263792.049183998
2,1, 1, 1, 0,16, 0.00,60.00,Thursday
7,-0.075
8,4.375
204,22.4904140394707
205,0.035181224250908937
206,0.0
291,380760.8058955572
340,719.5883676187633
341,75832.89973415884
342,2294761.921512712
418,12496.024591999203
443,12496.024591999203
689,19.299439751448713
11,7613792.049183998
2,1, 1, 1, 0,17, 0.00,60.00,Thursday
7,-1.25
8,4.625
204,22.064094342890975
205,0.03533857969646025
206,0.0
291,394386.74419369
340,746.3841080422144
341,78125.37566259899
342,2368318.008400212
418,12496.024591999203
443,12496.024591999203
689,18.76084982752613
11,7613792.049183998
2,1, 1, 1, 0,18, 0.00,60.00,Thursday
7,-2.0625
8,3.75
204,21.79473620481206
205,0.03548290642556339
206,0.0
291,411077.27523995907
340,754.0468307924455
341,22933.89720379465
342,2415325.9940053495
418,12496.024591999203
443,12496.024591999203
689,18.350863989150493
11,7613792.049183998
2,1, 1, 1, 0,19, 0.00,60.00,Thursday
7,-3.9125
8,3.0
204,20.00171189536028
205,0.03571164269874377
206,2326454.7913334994
291,36418.8052508354
340,648.1690392087214
341,10068.199856582143
342,2430914.093115298
418,12496.024591999203
443,12496.024591999203
689,16.63326583251303
11,24992.049183998406
2,1, 1, 1, 0,20, 0.00,60.00,Thursday
7,-5.625
8,2.375
204,19.563128397999236
205,0.03592609098548652
206,2644070.691449018
291,0.0
340,497.4128863658843
341,3900.4586134210367
342,2555425.2220163317
418,12496.024591999203
443,12496.024591999203
689,15.973874030123607
11,24992.049183998406
2,1, 1, 1, 0,21, 0.00,60.00,Thursday
7,-5.0
8,2.625
204,19.454636876895666
205,0.035877643255192875
206,2630168.2321192296
291,0.0
340,436.16332919565673
341,1449.7258746816178
342,2471159.73144629
418,12496.024591999203
443,12496.024591999203
689,15.884850705249205
11,24992.049183998406
2,1, 1, 1, 0,22, 0.00,60.00,Thursday
7,-4.15
8,3.0
204,19.486954161611855
205,0.03574276772816934
206,2646376.588641499
291,0.0
340,413.5231843991287
341,542.0590979909747
342,2389843.4556959956
418,12496.024591999203
443,12496.024591999203
689,16.045924845645597
11,24992.049183998406
2,1, 1, 1, 0,23, 0.00,60.00,Thursday
7,-4.0
8,2.375
204,19.447441095767772
205,0.03569832382780594
206,2653412.3505299496
291,0.0
340,405.0536860335575
341,202.57258013160435
342,2372181.1415431034
418,12496.024591999203
443,12496.024591999203
689,16.04711672218187
11,24992.049183998406
2,1, 1, 1, 0,24, 0.00,60.00,Thursday
7,-3.875
8,2.625
204,19.386132132117847
205,0.03572004665031524
206,2656504.7320786947
291,0.0
340,401.898873807232
341,76.11461611497475
342,2353637.649860284
418,12496.024591999203
443,12496.024591999203
689,16.012919767377994
11,24992.049183998406
2,2, 1, 2, 0, 1, 0.00,60.00,Friday
7,-3.925
8,3.625
204,19.31975846541747
205,0.03570441774735732
206,2658146.93721898
291,0.0
340,400.7177186870613
341,28.769098456746285
342,2352867.477932609
418,12496.024591999203
443,12496.024591999203
689,15.953302937616415
11,24992.049183998406
2,2, 1, 2, 0, 2, 0.00,60.00,Friday
7,-4.0
8,3.375
204,19.256862500675584
205,0.035687250224122294
206,2656062.832622359
291,0.0
340,400.2728067684478
341,10.935210208850544
342,2353491.12982123
418,12496.024591999203
443,12496.024591999203
689,15.882853717991985
11,24992.049183998406
2,2, 1, 2, 0, 3, 0.00,60.00,Friday
7,-4.0
8,3.625
204,19.20647019188862
205,0.035687250224122294
206,2657304.7378132963
291,0.0
340,400.1041495930615
341,4.174741340334677
342,2348523.5892151985
418,12496.024591999203
443,12496.024591999203
689,15.841087857133815
11,24992.049183998406
2,2, 1, 2, 0, 4, 0.00,60.00,Friday
7,-4.0
8,3.375
204,19.158611365523434
205,0.035679340507205295
206,2657246.13374868
291,0.0
340,400.03993583550596
341,1.6007915012976488
342,2343960.3326723296
418,12496.024591999203
443,12496.024591999203
689,15.797697158888399
11,24992.049183998406
2,2, 1, 2, 0, 5, 0.00,60.00,Friday
7,-4.0
8,4.875
204,19.105361819390794
205,0.03568942539627443
206,2659679.4766528634
291,0.0
340,400.0153735037246
341,0.6162328594283017
342,2338338.2108897157
418,12496.024591999203
443,12496.024591999203
689,15.756828517945891
11,24992.049183998406
2,2, 1, 2, 0, 6, 0.00,60.00,Friday
7,-4.375
8,5.375
204,19.010288586386068
205,0.035856930821162744
206,2658996.4053044026
291,0.0
340,400.0059527938643
341,0.238612306621088
342,2366497.2564241625
418,12496.024591999203
443,12496.024591999203
689,15.631739906934516
11,24992.049183998406
2,2, 1, 2, 0, 7, 0.00,60.00,Friday
7,-6.1
8,5.0
204,18.7704555933369
205,0.0360621272943958
206,2649687.1048030118
291,0.0
340,400.00233279011076
341,0.09350776153759803
342,2520346.8953901804
418,12496.024591999203
443,12496.024591999203
689,15.213053105164853
11,24992.049183998406
2,2, 1, 2, 0, 8, 0.00,60.00,Friday
7,-7.625
8,3.75
204,18.507567138166664
205,0.03621091423990053
206,2616850.2345653283
291,0.0
340,400.0009332304079
341,0.03740768877132569
342,2643931.1879317174
418,12496.024591999203
443,12496.024591999203
689,14.732126377680473
11,24992.049183998406
2,2, 1, 2, 0, 9, 0.00,60.00,Friday
7,-7.562500000000001
8,4.25
204,18.46993111689025
205,0.036347685748840446
206,2591310.1354721547
291,0.0
340,400.0003779795542
341,0.015150965293735622
342,2626367.717716425
418,12496.024591999203
443,12496.024591999203
689,14.642937365422263
11,24992.049183998406
2,2, 1, 2, 0,10, 0.00,60.00,Friday
7,-8.3625
8,4.375
204,20.0556140797132
205,0.03639666720206305
206,627172.7328855251
291,347136.8932037075
340,547.4156463706855
341,0.00628191196803098
342,2848657.957868313
418,12496.024591999203
443,12496.024591999203
689,15.715326579326174
11,6263792.049183998
2,2, 1, 2, 0,11, 0.00,60.00,Friday
7,-9.0
8,4.625
204,20.566069959627235
205,0.0363993857756469
206,0.0
291,528431.3812248292
340,694.9650492640271
341,0.0017202418877059877
342,2976205.0644917516
418,12496.024591999203
443,12496.024591999203
689,16.157749392067238
11,7613792.049183998
2,2, 1, 2, 0,12, 0.00,60.00,Friday
7,-8.0
8,3.75
204,21.170455706388903
205,0.03645432546798444
206,0.0
291,526644.6514387323
340,735.0133056132751
341,0.0005418876621491335
342,2929526.751285851
418,12496.024591999203
443,12496.024591999203
689,16.76349519104813
11,7613792.049183998
2,2, 1, 2, 0,13, 0.00,60.00,Friday
7,-7.775
8,3.625
204,21.510484897398303
205,0.0363501409327827
206,0.0
291,514963.26797334466
340,748.3503784949359
341,0.00016822309524283885
342,2953828.7611947646
418,12496.024591999203
443,12496.024591999203
689,17.195011270353277
11,7613792.049183998
2,2, 1, 2, 0,14, 0.00,60.00,Friday
7,-7.375
8,3.375
204,20.06737482665806
205,0.03618539952619383
206,1887897.6047808547
291,43664.43339860282
340,653.5175952987809
341,0.00007632847412766235
342,2781920.992585193
418,12496.024591999203
443,12496.024591999203
689,16.15022418745184
11,243872.04918399846
2,2, 1, 2, 0,15, 0.00,60.00,Friday
7,-6.4375
8,3.0
204,21.01533277321594
205,0.03624675781744398
206,40985.10188539686
291,381629.2505165662
340,636.7440117570765
341,0.00003223408897514859
342,2752580.3513696305
418,12496.024591999203
443,12496.024591999203
689,16.84232356520783
11,6263792.049183998
2,2, 1, 2, 0,16, 0.00,60.00,Friday
7,-6.6625
8,2.375
204,21.17423621215041
205,0.036194426031815566
206,0.0
291,465717.0162330864
340,720.9062362766241
341,75614.15543167526
342,2830989.4363544835
418,12496.024591999203
443,12496.024591999203
689,17.270928731999216
11,7613792.049183998
2,2, 1, 2, 0,17, 0.00,60.00,Friday
7,-8.25
8,2.0
204,20.55778554002754
205,0.03630618318357204
206,0.0
291,489494.84211034246
340,744.1465672283991
341,77430.74511261283
342,2921364.651414649
418,12496.024591999203
443,12496.024591999203
689,16.452382744329487
11,7613792.049183998
2,2, 1, 2, 0,18, 0.00,60.00,Friday
7,-8.375
8,2.0
204,20.32967960112241
205,0.03651616577589936
206,0.0
291,499705.3786742656
340,751.5271247678469
341,22486.699410539495
342,2898057.1074992386
418,12496.024591999203
443,12496.024591999203
689,16.135948758682538
11,7613792.049183998
2,2, 1, 2, 0,19, 0.00,60.00,Friday
7,-9.25
8,2.0
204,18.99995340110223
205,0.03656026471828722
206,2635913.794250629
291,0.0
340,614.8377447078401
341,8813.420057998157
342,2872047.3413645993
418,12496.024591999203
443,12496.024591999203
689,15.042253189437893
11,24992.049183998406
2,2, 1, 2, 0,20, 0.00,60.00,Friday
7,-10.0
8,2.0
204,18.60254316392094
205,0.03654710431135273
206,2569650.120232137
291,0.0
340,478.63430556662524
341,3168.188130814527
342,2890949.898953326
418,12496.024591999203
443,12496.024591999203
689,14.449472183147815
11,24992.049183998406
2,2, 1, 2, 0,21, 0.00,60.00,Friday
7,-9.3125
8,2.0
204,18.521440891417406
205,0.036639239575614636
206,2570835.3096540957
291,0.0
340,431.82123122157225
341,1284.2186286124645
342,2810411.45015935
418,12496.024591999203
443,12496.024591999203
689,14.453448144032759
11,24992.049183998406
2,2, 1, 2, 0,22, 0.00,60.00,Friday
7,-9.5875
8,1.375
204,18.42877864087857
205,0.03660158653396807
206,2581157.06779872
291,0.0
340,412.8472803603281
341,518.4111963801066
342,2832491.977974818
418,12496.024591999203
443,12496.024591999203
689,14.365787225597831
11,24992.049183998406
2,2, 1, 2, 0,23, 0.00,60.00,Friday
7,-10.0
8,1.0
204,18.28975476156213
205,0.03654494148198113
206,2569972.3653042293
291,0.0
340,405.2344107108919
341,211.22024775573226
342,2858062.0511769755
418,12496.024591999203
443,12496.024591999203
689,14.170727740868974
11,24992.049183998406
2,2, 1, 2, 0,24, 0.00,60.00,Friday
7,-9.25
8,1.0
204,18.27524624872855
205,0.03661598741767366
206,2571355.729350618
291,0.0
340,402.1458906674678
341,86.59144817378792
342,2777901.5600586515
418,12496.024591999203
443,12496.024591999203
689,14.242762418572905
11,24992.049183998406
2,3, 1, 3, 0, 1, 0.00,60.00,Saturday
7,-9.55
8,1.0
204,18.211725270492305
205,0.03658761912614368
206,2585062.567371876
291,0.0
340,400.88108414029455
341,35.55370136430708
342,2806416.6733953906
418,12496.024591999203
443,12496.024591999203
689,14.184047417667022
11,24992.049183998406
2,3, 1, 3, 0, 2, 0.00,60.00,Saturday
7,-10.0
8,1.0
204,18.089065343378547
205,0.03654494148198113
206,2571652.7710426096
291,0.0
340,400.364325830751
341,14.701356140256019
342,2837245.281943625
418,12496.024591999203
443,12496.024591999203
689,13.995396737757305
11,24992.049183998406
2,3, 1, 3, 0, 3, 0.00,60.00,Saturday
7,-9.6875
8,1.625
204,18.04256659827945
205,0.03666160570584651
206,2574410.807985938
291,0.0
340,400.15149068871244
341,6.112985627872138
342,2800041.223639049
418,12496.024591999203
443,12496.024591999203
689,13.994691934987861
11,24992.049183998406
2,3, 1, 3, 0, 4, 0.00,60.00,Saturday
7,-10.4375
8,2.625
204,17.91131206104385
205,0.036704162127279984
206,2580847.097746071
291,0.0
340,400.0633358171069
341,2.555740837865118
342,2866460.8738645418
418,12496.024591999203
443,12496.024591999203
689,13.806942202312952
11,24992.049183998406
2,3, 1, 3, 0, 5, 0.00,60.00,Saturday
7,-11.0
8,2.375
204,17.7676901429528
205,0.03668762924673103
206,2559657.9134150427
291,0.0
340,400.0267448752887
341,1.079215096628026
342,2905168.373449006
418,12496.024591999203
443,12496.024591999203
689,13.572107099545223
11,24992.049183998406
2,3, 1, 3, 0, 6, 0.00,60.00,Saturday
7,-10.3125
8,2.625
204,17.773686790928394
205,0.03673989556298475
206,2558766.2619167087
291,0.0
340,400.0113433436854
341,0.45772910209502254
342,2833593.878927763
418,12496.024591999203
443,12496.024591999203
689,13.653811934715698
11,24992.049183998406
2,3, 1, 3, 0, 7, 0.00,60.00,Saturday
7,-10.5875
8,2.375
204,17.731633450557386
205,0.03671903016564223
206,2573379.7266021725
291,0.0
340,400.0048107116419
341,0.1941228954401747
342,2861434.337570565
418,12496.024591999203
443,12496.024591999203
689,13.61447479567483
11,24992.049183998406
2,3, 1, 3, 0, 8, 0.00,60.00,Saturday
7,-11.625
8,2.0
204,17.565820864597743
205,0.036773281356676304
206,2563132.944350471
291,0.0
340,400.0020528623335
341,0.08283755290293243
342,2950362.7426273297
418,12496.024591999203
443,12496.024591999203
689,13.32774150768448
11,24992.049183998406
2,3, 1, 3, 0, 9, 0.00,60.00,Saturday
7,-11.624999999999998
8,2.0
204,17.526686110947796
205,0.03692440608114898
206,2530328.9036618154
291,0.0
340,400.0008835669872
341,0.03565388961623067
342,2938913.8886080645
418,12496.024591999203
443,12496.024591999203
689,13.229800417149164
11,24992.049183998406
2,3, 1, 3, 0,10, 0.00,60.00,Saturday
7,-11.15
8,3.25
204,17.95722222926995
205,0.03679429811623909
206,2491713.676983601
291,0.0
340,400.00037542115496
341,0.015149077102409782
342,2924511.807574652
418,12496.024591999203
443,12496.024591999203
689,13.580688532284771
11,24992.049183998406
2,3, 1, 3, 0,11, 0.00,60.00,Saturday
7,-11.0
8,5.25
204,18.509558009534537
205,0.036680568035514505
206,2494030.5967523055
291,0.0
340,400.0001533399731
341,0.0061876083573894495
342,2965948.867171798
418,12496.024591999203
443,12496.024591999203
689,14.078529080216166
11,24992.049183998406
2,3, 1, 3, 0,12, 0.00,60.00,Saturday
7,-10.5625
8,4.125
204,18.907914253083405
205,0.036776306350258685
206,2513584.1191995055
291,0.0
340,400.0000603341388
341,0.002434616452641018
342,2966710.5088996678
418,12496.024591999203
443,12496.024591999203
689,14.51957485726794
11,24992.049183998406
2,3, 1, 3, 0,13, 0.00,60.00,Saturday
7,-9.4875
8,3.625
204,19.08880128253427
205,0.03656351003880898
206,2548307.740666075
291,0.0
340,400.000023223879
341,0.000937135070439665
342,2882425.7984147207
418,12496.024591999203
443,12496.024591999203
689,14.88274519691309
11,24992.049183998406
2,3, 1, 3, 0,14, 0.00,60.00,Saturday
7,-8.375
8,3.375
204,19.121597158575163
205,0.036313752483518015
206,2578429.3858398567
291,0.0
340,400.0000088748003
341,0.00035811789247260214
342,2777424.4586215494
418,12496.024591999203
443,12496.024591999203
689,15.107752376135107
11,24992.049183998406
2,3, 1, 3, 0,15, 0.00,60.00,Saturday
7,-7.375
8,3.625
204,19.02584786512687
205,0.03617246290800019
206,2605290.2254812145
291,0.0
340,400.00000340962595
341,0.00013758596773647385
342,2669800.413783703
418,12496.024591999203
443,12496.024591999203
689,15.196320091524012
11,24992.049183998406
2,3, 1, 3, 0,16, 0.00,60.00,Saturday
7,-6.375
8,4.625
204,18.867792530070165
205,0.0360372179334824
206,2631566.4007489635
291,0.0
340,400.0000013271293
341,0.00005355261446285682
342,2554652.519457964
418,12496.024591999203
443,12496.024591999203
689,15.22549908082765
11,24992.049183998406
2,3, 1, 3, 0,17, 0.00,60.00,Saturday
7,-6.625
8,3.75
204,18.586256225628436
205,0.036070080913457106
206,2642196.7544805147
291,0.0
340,400.0000005263748
341,0.000021240384343111834
342,2554203.6385746454
418,12496.024591999203
443,12496.024591999203
689,14.971530255547105
11,24992.049183998406
2,3, 1, 3, 0,18, 0.00,60.00,Saturday
7,-6.6875
8,3.625
204,18.417149015340755
205,0.03616254916306983
206,2626801.4707043376
291,0.0
340,400.000000212907
341,0.000008591265236835484
342,2538928.7801123085
418,12496.024591999203
443,12496.024591999203
689,14.774885849526296
11,24992.049183998406
2,3, 1, 3, 0,19, 0.00,60.00,Saturday
7,-6.8125
8,4.0
204,18.336340210405336
205,0.036145376451360775
206,2684030.104736973
291,0.0
340,400.0000000876779
341,0.0000035379926238338576
342,2542649.8793346668
418,8843.196951689164
443,8843.196951689164
689,14.661633364933206
11,17686.393903378328
2,3, 1, 3, 0,20, 0.00,60.00,Saturday
7,-6.375
8,4.625
204,18.380716880510835
205,0.0360372179334824
206,2846896.4638374713
291,0.0
340,400.00000004077873
341,0.0000016455113170010711
342,2498169.55544433
418,2075.4268086345273
443,2075.4268086345273
689,14.682748423575722
11,4150.853617269055
2,3, 1, 3, 0,21, 0.00,60.00,Saturday
7,-6.0625
8,5.625
204,18.406371453065308
205,0.036066469797640915
206,2936967.2052291697
291,0.0
340,400.00000002115854
341,8.537946020973172e-7
342,2472930.4161286373
418,1035.9811480430874
443,1035.9811480430874
689,14.773853482194239
11,2071.962296086175
2,3, 1, 3, 0,22, 0.00,60.00,Saturday
7,-6.0375
8,6.0
204,18.36297678244146
205,0.036035103594879526
206,2974100.5851163515
291,0.0
340,400.0000000115196
341,4.648362792301094e-7
342,2465770.4033356286
418,792.4572991508057
443,792.4572991508057
689,14.742445460573812
11,1584.9145983016115
2,3, 1, 3, 0,23, 0.00,60.00,Saturday
7,-6.625
8,6.0
204,18.259675931793268
205,0.036070080913457106
206,3001345.0936847413
291,0.0
340,400.00000000643854
341,2.5980018704497255e-7
342,2517809.6897827312
418,706.7246767605835
443,706.7246767605835
689,14.598754316981157
11,1413.449353521167
2,3, 1, 3, 0,24, 0.00,60.00,Saturday
7,-7.0625
8,5.375
204,18.138866752246393
205,0.0361918318131778
206,3005098.3504603626
291,0.0
340,400.00000000366384
341,1.4783043874853924e-7
342,2547697.660880239
418,668.6219110449579
443,668.6219110449579
689,14.415748967574554
11,1337.2438220899157
2,4, 1, 4, 0, 1, 0.00,60.00,Sunday
7,-7.6625
8,4.375
204,18.04295315178299
205,0.03625127385646208
206,3014265.7714576195
291,0.0
340,400.0000000021064
341,8.498651904952082e-8
342,2599518.0456719934
418,649.4033903609063
443,649.4033903609063
689,14.259012663694934
11,1298.8067807218126
2,4, 1, 4, 0, 2, 0.00,60.00,Sunday
7,-8.0
8,4.0
204,17.955018960494527
205,0.03626078442371297
206,3011602.942278629
291,0.0
340,400.00000000122003
341,4.922372709920896e-8
342,2622468.91665355
418,639.0515947118325
443,639.0515947118325
689,14.119595657392058
11,1278.103189423665
2,4, 1, 4, 0, 3, 0.00,60.00,Sunday
7,-7.75
8,4.625
204,17.93096607628334
205,0.03626686250466684
206,3011398.2442545593
291,0.0
340,400.0000000007096
341,2.8629574767164194e-8
342,2594025.9420105657
418,633.2733668544766
443,633.2733668544766
689,14.130374830755576
11,1266.5467337089533
2,4, 1, 4, 0, 4, 0.00,60.00,Sunday
7,-7.225
8,3.75
204,17.95664326489488
205,0.03618144621993323
206,3008436.9767862586
291,0.0
340,400.00000000041337
341,1.668015083491756e-8
342,2541816.4785530833
418,629.9778005711073
443,629.9778005711073
689,14.217626172094771
11,1259.9556011422146
2,4, 1, 4, 0, 5, 0.00,60.00,Sunday
7,-7.0
8,4.25
204,17.96001952923097
205,0.03613281859531027
206,3016815.4941150043
291,0.0
340,400.0000000002406
341,9.715417970399974e-9
342,2521377.160596101
418,628.0748534209059
443,628.0748534209059
689,14.275247392049929
11,1256.1497068418118
2,4, 1, 4, 0, 6, 0.00,60.00,Sunday
7,-6.812499999999999
8,4.375
204,17.941692261573287
205,0.03609477935670369
206,3013311.117390086
291,0.0
340,400.00000000014046
341,5.6674483228966904e-9
342,2499428.371655701
418,626.9737679976242
443,626.9737679976242
689,14.27612231679329
11,1253.9475359952485
2,4, 1, 4, 0, 7, 0.00,60.00,Sunday
7,-6.8875
8,4.0
204,17.92797448106814
205,0.03610178383891954
206,3017719.3910911432
291,0.0
340,400.0000000000821
341,3.3074820347160627e-9
342,2507598.257821409
418,626.334342677267
443,626.334342677267
689,14.26543042768578
11,1252.668685354534
2,4, 1, 4, 0, 8, 0.00,60.00,Sunday
7,-7.0
8,4.625
204,17.880902543391766
205,0.03612153351182732
206,3017617.022696589
291,0.0
340,400.00000000004803
341,1.932811974450822e-9
342,2514247.85584889
418,625.9623105241437
443,625.9623105241437
689,14.208249365492248
11,1251.9246210482875
2,4, 1, 4, 0, 9, 0.00,60.00,Sunday
7,-6.6875
8,5.0
204,17.882400048721788
205,0.036039777692786955
206,3011984.2619088083
291,0.0
340,400.0000000000281
341,1.1310310217819375e-9
342,2480876.612717692
418,625.7457244598584
443,625.7457244598584
689,14.239069428500773
11,1251.4914489197167
2,4, 1, 4, 0,10, 0.00,60.00,Sunday
7,-6.1875
8,6.25
204,17.968552435385135
205,0.03599394541196982
206,3008059.6030071173
291,0.0
340,400.0000000000165
341,6.608331855313578e-10
342,2437074.9203759665
418,625.6189666157061
443,625.6189666157061
689,14.373594728898928
11,1251.2379332314122
2,4, 1, 4, 0,11, 0.00,60.00,Sunday
7,-6.625
8,5.75
204,18.034976499918667
205,0.03606747650904263
206,3012601.927087801
291,0.0
340,400.0000000000096
341,3.846358831076417e-10
342,2490412.444873615
418,625.544500537264
443,625.544500537264
689,14.379854880038433
11,1251.089001074528
2,4, 1, 4, 0,12, 0.00,60.00,Sunday
7,-6.562500000000001
8,3.75
204,18.186059252983576
205,0.03599584379420166
206,2998062.7034451794
291,0.0
340,400.00000000000557
341,2.2298132495787068e-10
342,2494762.5124137457
418,625.5009068342954
443,625.5009068342954
689,14.473082990530902
11,1251.0018136685908
2,4, 1, 4, 0,13, 0.00,60.00,Sunday
7,-6.1125
8,4.25
204,18.39734504188243
205,0.03595925953672191
206,3004458.045405874
291,0.0
340,400.00000000000324
341,1.2814031695372584e-10
342,2472443.6781867417
418,625.4753345864036
443,625.4753345864036
689,14.736055412938214
11,1250.9506691728072
2,4, 1, 4, 0,14, 0.00,60.00,Sunday
7,-6.0
8,4.375
204,18.50511623788345
205,0.03597866852311022
206,3010946.277065895
291,0.0
340,400.0000000000019
341,7.314198479050954e-11
342,2474299.1781412787
418,625.4604486958791
443,625.4604486958791
689,14.865238236132294
11,1250.9208973917582
2,4, 1, 4, 0,15, 0.00,60.00,Sunday
7,-5.375
8,4.625
204,18.575546345856424
205,0.03589641478137792
206,3012923.5662967646
291,0.0
340,400.00000000000114
341,4.161880551693836e-11
342,2418634.522472731
418,625.4518983061238
443,625.4518983061238
689,15.021756157563104
11,1250.9037966122476
2,4, 1, 4, 0,16, 0.00,60.00,Sunday
7,-5.0
8,4.375
204,18.346862051737332
205,0.03584181014346782
206,2777181.998193239
291,0.0
340,400.0000000000008
341,67314.90415880851
342,2369336.4517601174
418,9528.380553505256
443,9528.380553505256
689,15.018200509212143
11,19056.761107010512
2,4, 1, 4, 0,17, 0.00,60.00,Sunday
7,-5.0
8,3.375
204,18.0361835615389
205,0.03583214938429129
206,2676545.6483909846
291,0.0
340,400.00000000000034
341,73596.40787885842
342,2334304.978091989
418,12496.024591999203
443,12496.024591999203
689,14.730677724221469
11,24992.049183998406
2,4, 1, 4, 0,18, 0.00,60.00,Sunday
7,-5.125
8,3.0
204,17.91790070570451
205,0.03575873742756476
206,2664453.737172093
291,0.0
340,400.0000000000003
341,29741.685712169827
342,2332170.158563085
418,12496.024591999203
443,12496.024591999203
689,14.584771748326665
11,24992.049183998406
2,4, 1, 4, 0,19, 0.00,60.00,Sunday
7,-5.075
8,2.375
204,17.855354627915588
205,0.03578657419606972
206,2661273.8524971562
291,0.0
340,400.0000000000002
341,12553.733377550448
342,2319446.623662013
418,12496.024591999203
443,12496.024591999203
689,14.527985354608395
11,24992.049183998406
2,4, 1, 4, 0,20, 0.00,60.00,Sunday
7,-5.0
8,2.0
204,17.816265634693554
205,0.03582832153631565
206,2663912.2196627725
291,0.0
340,400.00000000000017
341,5298.313445208441
342,2308018.865190169
418,12496.024591999203
443,12496.024591999203
689,14.507204927302515
11,24992.049183998406
2,4, 1, 4, 0,21, 0.00,60.00,Sunday
7,-4.5
8,3.25
204,17.81720675740982
205,0.035679832226893346
206,2664376.398225578
291,0.0
340,400.00000000000017
341,2240.6722735101216
342,2256101.809115488
418,12496.024591999203
443,12496.024591999203
689,14.564988866143803
11,24992.049183998406
2,4, 1, 4, 0,22, 0.00,60.00,Sunday
7,-4.075
8,2.75
204,17.846508829227595
205,0.03565105779204111
206,2674590.5940294215
291,0.0
340,400.00000000000017
341,945.5145419516574
342,2217077.2508310294
418,12496.024591999203
443,12496.024591999203
689,14.660126007533291
11,24992.049183998406
2,4, 1, 4, 0,23, 0.00,60.00,Sunday
7,-4.0
8,2.0
204,17.823385493748987
205,0.035687250224122294
206,2681547.425307278
291,0.0
340,400.00000000000017
341,398.92121436008864
342,2208336.8808093374
418,12496.024591999203
443,12496.024591999203
689,14.662682834022464
11,24992.049183998406
2,4, 1, 4, 0,24, 0.00,60.00,Sunday
7,-3.875
8,1.375
204,17.800798020746047
205,0.03562183072250093
206,2679877.531792848
291,0.0
340,400.0000000000001
341,168.6734574601666
342,2192926.3434122493
418,12496.024591999203
443,12496.024591999203
689,14.653068354365677
11,24992.049183998406
2,5, 1, 5, 0, 1, 0.00,60.00,Monday
7,-4.55
8,3.5
204,17.698532498003086
205,0.03572878109470297
206,2689069.25932647
291,0.0
340,400.0000000000001
341,71.44905852714604
342,2255440.727451615
418,12496.024591999203
443,12496.024591999203
689,14.505145851315628
11,24992.049183998406
2,5, 1, 5, 0, 2, 0.00,60.00,Monday
7,-5.0
8,3.75
204,17.569782421863966
205,0.03583032659954096
206,2669462.6418422735
291,0.0
340,400.00000000000017
341,30.560799685805996
342,2283193.818162716
418,12496.024591999203
443,12496.024591999203
689,14.299698623249016
11,24992.049183998406
2,5, 1, 5, 0, 3, 0.00,60.00,Monday
7,-5.0
8,3.0
204,17.537852292889227
205,0.03583852913091731
206,2668096.9382914165
291,0.0