Program Version,EnergyPlus, Version 25.2.0-cf7368216c, YMD=2026.04.06 12:12
1,5,Environment Title[],Latitude[deg],Longitude[deg],Time Zone[],Elevation[m]
2,8,Day of Simulation[],Month[],Day of Month[],DST Indicator[1=yes 0=no],Hour[],StartMinute[],EndMinute[],DayType
3,5,Cumulative Day of Simulation[],Month[],Day of Month[],DST Indicator[1=yes 0=no],DayType  ! When Daily Report Variables Requested
4,2,Cumulative Days of Simulation[],Month[]  ! When Monthly Report Variables Requested
5,1,Cumulative Days of Simulation[] ! When Run Period Report Variables Requested
6,1,Calendar Year of Simulation[] ! When Annual Report Variables Requested
7,1,Environment,Site Outdoor Air Drybulb Temperature [C] !Hourly
8,1,Environment,Site Wind Speed [m/s] !Hourly
204,1,MAINZONE,Zone Mean Air Temperature [C] !Hourly
205,1,MAINZONE,Zone Air System Sensible Heating Energy [J] !Hourly
290,1,MAINZONE,Zone Air System Sensible Cooling Energy [J] !Hourly
339,1,MAINZONE,Zone Air CO2 Concentration [ppm] !Hourly
340,1,LAB_HX,Heat Exchanger Sensible Heating Energy [J] !Hourly
416,1,SUPPLY_FAN,Fan Electricity Energy [J] !Hourly
441,1,EXHAUST_FAN,Fan Electricity Energy [J] !Hourly
627,1,ERV_SA_OUTLET,System Node Temperature [C] !Hourly
655,1,MAINZONE,Zone Mechanical Ventilation Air Changes per Hour [ach] !Hourly
11,1,Electricity:Facility [J] !Hourly
End of Data Dictionary
1,ANNUAL,  50.39,  30.54,   2.00, 178.60
2,1, 1, 1, 0, 1, 0.00,60.00,Thursday
7,-7.05
8,2.375
204,12.220760790928583
205,17507520.451078527
290,0.0
339,403.31447885994754
340,2926174.2255357313
416,18744.036887998802
441,18744.036887998802
627,9.46336091137827
655,0.7428603137415446
11,18037488.073776
2,1, 1, 1, 0, 2, 0.00,60.00,Thursday
7,-9.625
8,1.375
204,12.12167277051006
205,17438942.113054425
290,0.0
339,401.48586177355133
340,3297222.2078822474
416,18744.036887998802
441,18744.036887998802
627,8.979575330345773
655,0.7431432747863437
11,18037488.073776
2,1, 1, 1, 0, 3, 0.00,60.00,Thursday
7,-9.0625
8,1.625
204,12.072803195515316
205,17454262.557295714
290,0.0
339,400.6677853389486
340,3203374.9840852665
416,18744.036887998802
441,18744.036887998802
627,9.015724242282587
655,0.7381562354079838
11,18037488.073776
2,1, 1, 1, 0, 4, 0.00,60.00,Thursday
7,-10.0625
8,0.75
204,11.997764348330628
205,17432109.84628222
290,0.0
339,400.3012453886041
340,3344909.5409523877
416,18744.036887998802
441,18744.036887998802
627,8.81586214735004
655,0.7397376361258187
11,18037488.073776
2,1, 1, 1, 0, 5, 0.00,60.00,Thursday
7,-11.0
8,0.0
204,11.897082973642418
205,17409441.140042815
290,0.0
339,400.1354976430356
340,3470946.4829037283
416,18744.036887998802
441,18744.036887998802
627,8.58738150310544
655,0.7421829437125236
11,18037488.073776
2,1, 1, 1, 0, 6, 0.00,60.00,Thursday
7,-9.625
8,1.25
204,11.813516200075856
205,17448029.05379487
290,0.0
339,400.06097368994534
340,3250309.073901912
416,18744.036887998802
441,18744.036887998802
627,8.719455610584887
655,0.7379181711385352
11,18037488.073776
2,1, 1, 1, 0, 7, 0.00,60.00,Thursday
7,-9.55
8,1.375
204,11.700973204675307
205,17455338.55194291
290,0.0
339,400.0275112438138
340,3223923.569822997
416,18744.036887998802
441,18744.036887998802
627,8.64743184024747
655,0.7390652704524012
11,18037488.073776
2,1, 1, 1, 0, 8, 0.00,60.00,Thursday
7,-10.625
8,1.0
204,11.552346349793849
205,17431273.32120375
290,0.0
339,400.01238192895994
340,3364088.1797158164
416,18744.036887998802
441,18744.036887998802
627,8.363424586530135
655,0.7409564030129202
11,18037488.073776
2,1, 1, 1, 0, 9, 0.00,60.00,Thursday
7,-8.75
8,1.625
204,11.440656528013417
205,17481501.915715188
290,0.0
339,400.0055749812007
340,3061675.2717991364
416,18744.036887998802
441,18744.036887998802
627,8.532973236225248
655,0.7375809420430564
11,18037488.073776
2,1, 1, 1, 0,10, 0.00,60.00,Thursday
7,-9.025
8,1.375
204,13.027531198866502
205,17390975.042522166
290,0.0
339,504.7854785875884
340,3302806.2014598865
416,18744.036887998802
441,18744.036887998802
627,9.61243288043897
655,0.742482443121523
11,24816288.073776
2,1, 1, 1, 0,11, 0.00,60.00,Thursday
7,-8.125
8,1.625
204,13.572908252370492
205,17434958.390078988
290,0.0
339,698.6210541816108
340,3284478.6996250944
416,18744.036887998802
441,18744.036887998802
627,10.405595039947608
655,0.7463562603955842
11,26346288.073776
2,1, 1, 1, 0,12, 0.00,60.00,Thursday
7,-5.000000000000001
8,2.625
204,13.615803943643396
205,17519154.35399824
290,0.0
339,820.8786033316871
340,2820532.51033041
416,18744.036887998802
441,18744.036887998802
627,10.921780034309007
655,0.744409996841783
11,26346288.073776
2,1, 1, 1, 0,13, 0.00,60.00,Thursday
7,-3.925
8,3.625
204,13.637968709252238
205,17547678.117220346
290,0.0
339,873.6692725026559
340,2661912.8053220464
416,18744.036887998802
441,18744.036887998802
627,11.104948986160755
655,0.7455644097655483
11,26346288.073776
2,1, 1, 1, 0,14, 0.00,60.00,Thursday
7,-2.75
8,4.0
204,11.783560027861238
205,17656069.414530132
290,0.0
339,784.3048160550995
340,2230147.6431831704
416,18744.036887998802
441,18744.036887998802
627,9.857981013922704
655,0.741445817567276
11,18256368.073776
2,1, 1, 1, 0,15, 0.00,60.00,Thursday
7,-0.8750000000000001
8,4.625
204,13.148741366128972
205,17604259.6408707
290,0.0
339,762.5028590664167
340,2089270.1451520948
416,18744.036887998802
441,18744.036887998802
627,10.933129018177004
655,0.7441131549563891
11,24816288.073776
2,1, 1, 1, 0,16, 0.00,60.00,Thursday
7,-0.075
8,4.375
204,13.85376723758138
205,17635787.898076274
290,0.0
339,832.2728202293372
340,2105274.1165124406
416,18744.036887998802
441,18744.036887998802
627,11.81557064150366
655,0.747240482434493
11,26346288.073776
2,1, 1, 1, 0,17, 0.00,60.00,Thursday
7,-1.25
8,4.625
204,14.060546493260755
205,17601080.296709456
290,0.0
339,876.8884235690796
340,2315422.2824345613
416,18744.036887998802
441,18744.036887998802
627,11.829335379577186
655,0.7486008155652113
11,26346288.073776
2,1, 1, 1, 0,18, 0.00,60.00,Thursday
7,-2.0625
8,3.75
204,14.270960574896016
205,17571975.37228206
290,0.0
339,895.706715532303
340,2468194.7653980744
416,18744.036887998802
441,18744.036887998802
627,11.877770806581212
655,0.7487807871060205
11,26346288.073776
2,1, 1, 1, 0,19, 0.00,60.00,Thursday
7,-3.9125
8,3.0
204,12.449076807681287
205,17607096.46875766
290,0.0
339,784.5780271292697
340,2508096.0461360165
416,18744.036887998802
441,18744.036887998802
627,10.252406681870855
655,0.7436052662094317
11,18037488.073776
2,1, 1, 1, 0,20, 0.00,60.00,Thursday
7,-5.625
8,2.375
204,12.19747414782114
205,17542286.559522983
290,0.0
339,585.4691868236257
340,2703098.3449068703
416,18744.036887998802
441,18744.036887998802
627,9.637618224430938
655,0.7439451654187685
11,18037488.073776
2,1, 1, 1, 0,21, 0.00,60.00,Thursday
7,-5.0
8,2.625
204,12.205464054775746
205,17556705.19780207
290,0.0
339,482.5075831962653
340,2607911.7402718384
416,18744.036887998802
441,18744.036887998802
627,9.725352807008665
655,0.7428538402244231
11,18037488.073776
2,1, 1, 1, 0,22, 0.00,60.00,Thursday
7,-4.15
8,3.0
204,12.211222420241873
205,17580445.456816524
290,0.0
339,436.97153620999734
340,2481519.6504468145
416,18744.036887998802
441,18744.036887998802
627,9.86329222667832
655,0.742993315490824
11,18037488.073776
2,1, 1, 1, 0,23, 0.00,60.00,Thursday
7,-4.0
8,2.375
204,12.191633199894119
205,17585866.003605485
290,0.0
339,416.5500795996366
340,2456619.4020372303
416,18744.036887998802
441,18744.036887998802
627,9.873547723005744
655,0.7433120539786757
11,18037488.073776
2,1, 1, 1, 0,24, 0.00,60.00,Thursday
7,-3.875
8,2.625
204,12.154488782541353
205,17590869.167440824
290,0.0
339,407.4223453544494
340,2433015.106523403
416,18744.036887998802
441,18744.036887998802
627,9.864008065044857
655,0.7422061099103566
11,18037488.073776
2,2, 1, 2, 0, 1, 0.00,60.00,Friday
7,-3.925
8,3.625
204,12.105315766438258
205,17591296.410642534
290,0.0
339,403.32428573383896
340,2433920.160201546
416,18744.036887998802
441,18744.036887998802
627,9.816938581570385
655,0.7423650189970264
11,18037488.073776
2,2, 1, 2, 0, 2, 0.00,60.00,Friday
7,-4.0
8,3.375
204,12.060568773423796
205,17589978.7608667
290,0.0
339,401.4844596406486
340,2438045.3099590773
416,18744.036887998802
441,18744.036887998802
627,9.76460045477527
655,0.7427338284165619
11,18037488.073776
2,2, 1, 2, 0, 3, 0.00,60.00,Friday
7,-4.0
8,3.625
204,12.018282459558009
205,17591432.25631068
290,0.0
339,400.6638574692971
340,2431917.940382199
416,18744.036887998802
441,18744.036887998802
627,9.730277504530157
655,0.7425759583208661
11,18037488.073776
2,2, 1, 2, 0, 4, 0.00,60.00,Friday
7,-4.0
8,3.375
204,11.980145846686272
205,17591950.137915738
290,0.0
339,400.29651565820126
340,2426222.4385464713
416,18744.036887998802
441,18744.036887998802
627,9.694904669169286
655,0.7424445457544635
11,18037488.073776
2,2, 1, 2, 0, 5, 0.00,60.00,Friday
7,-4.0
8,4.875
204,11.936204690430568
205,17593989.03006839
290,0.0
339,400.13241391703974
340,2419618.464929388
416,18744.036887998802
441,18744.036887998802
627,9.662323023922337
655,0.7423090767786764
11,18037488.073776
2,2, 1, 2, 0, 6, 0.00,60.00,Friday
7,-4.375
8,5.375
204,11.891203219649768
205,17584466.994301718
290,0.0
339,400.0586605411427
340,2467309.7965023927
416,18744.036887998802
441,18744.036887998802
627,9.563769174379
655,0.7401081526090305
11,18037488.073776
2,2, 1, 2, 0, 7, 0.00,60.00,Friday
7,-6.1
8,5.0
204,11.835525040160455
205,17541231.515936457
290,0.0
339,400.026075248971
340,2720168.8670636225
416,18744.036887998802
441,18744.036887998802
627,9.265472487461322
655,0.7407595403191987
11,18037488.073776
2,2, 1, 2, 0, 8, 0.00,60.00,Friday
7,-7.625
8,3.75
204,11.784634506060394
205,17500473.852903917
290,0.0
339,400.0115988043081
340,2941575.609316193
416,18744.036887998802
441,18744.036887998802
627,8.985640640161389
655,0.7417972002968707
11,18037488.073776
2,2, 1, 2, 0, 9, 0.00,60.00,Friday
7,-7.562500000000001
8,4.25
204,11.752091056529652
205,17502884.848718405
290,0.0
339,400.0051856307597
340,2927451.6867436264
416,18744.036887998802
441,18744.036887998802
627,8.966069668066769
655,0.7385211928469583
11,18037488.073776
2,2, 1, 2, 0,10, 0.00,60.00,Friday
7,-8.3625
8,4.375
204,13.411654569140797
205,17395726.142234627
290,0.0
339,504.5578903901122
340,3258580.054547182
416,18744.036887998802
441,18744.036887998802
627,10.025062897982227
655,0.7436016791516568
11,24816288.073776
2,2, 1, 2, 0,11, 0.00,60.00,Friday
7,-9.0
8,4.625
204,14.03068723474126
205,17397340.661180846
290,0.0
339,696.9030621928607
340,3483518.8766358024
416,18744.036887998802
441,18744.036887998802
627,10.654289418815843
655,0.7479292209240304
11,26346288.073776
2,2, 1, 2, 0,12, 0.00,60.00,Friday
7,-8.0
8,3.75
204,14.130970192076662
205,17422128.99572149
290,0.0
339,817.66001317044
340,3348385.8677072134
416,18744.036887998802
441,18744.036887998802
627,10.894695451436142
655,0.7444489671524452
11,26346288.073776
2,2, 1, 2, 0,13, 0.00,60.00,Friday
7,-7.775
8,3.625
204,14.200365559840744
205,17428131.325809397
290,0.0
339,871.6159574427256
340,3326615.563093365
416,18744.036887998802
441,18744.036887998802
627,10.998860034493632
655,0.7464035419531435
11,26346288.073776
2,2, 1, 2, 0,14, 0.00,60.00,Friday
7,-7.375
8,3.375
204,12.357398528361585
205,17516878.100977533
290,0.0
339,782.7807773641223
340,3015218.480408094
416,18744.036887998802
441,18744.036887998802
627,9.652981917509628
655,0.7433031014428684
11,18256368.073776
2,2, 1, 2, 0,15, 0.00,60.00,Friday
7,-6.4375
8,3.0
204,13.695133749516344
205,17441530.980882682
290,0.0
339,762.0525589566836
340,3011081.917582104
416,18744.036887998802
441,18744.036887998802
627,10.56852478063792
655,0.7428069390616191
11,24816288.073776
2,2, 1, 2, 0,16, 0.00,60.00,Friday
7,-6.6625
8,2.375
204,14.338662209507936
205,17449189.442945857
290,0.0
339,833.9443091924961
340,3174477.1887790333
416,18744.036887998802
441,18744.036887998802
627,11.255613030719932
655,0.7468946936400729
11,26346288.073776
2,2, 1, 2, 0,17, 0.00,60.00,Friday
7,-8.25
8,2.0
204,14.472065370344
205,17405214.81077906
290,0.0
339,879.3976527547767
340,3436327.1982779205
416,18744.036887998802
441,18744.036887998802
627,11.143939889416973
655,0.749819292604265
11,26346288.073776
2,2, 1, 2, 0,18, 0.00,60.00,Friday
7,-8.375
8,2.0
204,14.605831566467906
205,17397075.42448075
290,0.0
339,899.2785825591434
340,3473786.422247089
416,18744.036887998802
441,18744.036887998802
627,11.232937296032098
655,0.7464736400796491
11,26346288.073776
2,2, 1, 2, 0,19, 0.00,60.00,Friday
7,-9.25
8,2.0
204,12.708552994045153
205,17459116.802717395
290,0.0
339,787.7766803865321
340,3353398.528106097
416,18744.036887998802
441,18744.036887998802
627,9.68262219711162
655,0.7423536952567056
11,18037488.073776
2,2, 1, 2, 0,20, 0.00,60.00,Friday
7,-10.0
8,2.0
204,12.37266675977932
205,17423920.721850548
290,0.0
339,587.1576383221861
340,3392044.258118497
416,18744.036887998802
441,18744.036887998802
627,9.148477602251752
655,0.7441979267712768
11,18037488.073776
2,2, 1, 2, 0,21, 0.00,60.00,Friday
7,-9.3125
8,2.0
204,12.283625737763945
205,17443416.712171692
290,0.0
339,483.3057851282913
340,3273639.988787902
416,18744.036887998802
441,18744.036887998802
627,9.16723862792076
655,0.7397665053300877
11,18037488.073776
2,2, 1, 2, 0,22, 0.00,60.00,Friday
7,-9.5875
8,1.375
204,12.173567963936565
205,17440866.85950787
290,0.0
339,437.522905230075
340,3300084.4528993843
416,18744.036887998802
441,18744.036887998802
627,9.041838475442635
655,0.7408440480779575
11,18037488.073776
2,2, 1, 2, 0,23, 0.00,60.00,Friday
7,-10.0
8,1.0
204,12.03980112490194
205,17433755.987447537
290,0.0
339,416.8562895135511
340,3342168.3642442785
416,18744.036887998802
441,18744.036887998802
627,8.867280884360005
655,0.7426704651801433
11,18037488.073776
2,2, 1, 2, 0,24, 0.00,60.00,Friday
7,-9.25
8,1.0
204,11.910381940752144
205,17457148.559832312
290,0.0
339,407.5802196453328
340,3209115.82218109
416,18744.036887998802
441,18744.036887998802
627,8.86811614119155
655,0.7385467101040853
11,18037488.073776
2,3, 1, 3, 0, 1, 0.00,60.00,Saturday
7,-9.55
8,1.0
204,11.759536008493818
205,17454908.65449569
290,0.0
339,403.4211248415442
340,3233166.706662833
416,18744.036887998802
441,18744.036887998802
627,8.704056790252931
655,0.7394683003274335
11,18037488.073776
2,3, 1, 3, 0, 2, 0.00,60.00,Saturday
7,-10.0
8,1.0
204,11.596666799918209
205,17446848.88138956
290,0.0
339,401.5396835318878
340,3275913.262843189
416,18744.036887998802
441,18744.036887998802
627,8.495399259080358
655,0.7410950675901349
11,18037488.073776
2,3, 1, 3, 0, 3, 0.00,60.00,Saturday
7,-9.6875
8,1.625
204,11.443322764732322
205,17459277.666075658
290,0.0
339,400.69325090300305
340,3205233.116155357
416,18744.036887998802
441,18744.036887998802
627,8.411202011572566
655,0.7373587261112949
11,18037488.073776
2,3, 1, 3, 0, 4, 0.00,60.00,Saturday
7,-10.4375
8,2.625
204,11.271875507513705
205,17445139.60681129
290,0.0
339,400.3126121781984
340,3293674.9441608787
416,18744.036887998802
441,18744.036887998802
627,8.159982413339959
655,0.7381392680067967
11,18037488.073776
2,3, 1, 3, 0, 5, 0.00,60.00,Saturday
7,-11.0
8,2.375
204,11.104903130833225
205,17433390.84297753
290,0.0
339,400.1403745696193
340,3352064.2111654747
416,18744.036887998802
441,18744.036887998802
627,7.926627970145784
655,0.7395667594819473
11,18037488.073776
2,3, 1, 3, 0, 6, 0.00,60.00,Saturday
7,-10.3125
8,2.625
204,10.958946753654093
205,17455444.256142396
290,0.0
339,400.0631490944829
340,3225982.1624491643
416,18744.036887998802
441,18744.036887998802
627,7.903963721218553
655,0.736046272894541
11,18037488.073776
2,3, 1, 3, 0, 7, 0.00,60.00,Saturday
7,-10.5875
8,2.375
204,10.799291546063104
205,17453460.605207134
290,0.0
339,400.02846792647426
340,3244325.1276009995
416,18744.036887998802
441,18744.036887998802
627,7.73286632274137
655,0.7367906472465154
11,18037488.073776
2,3, 1, 3, 0, 8, 0.00,60.00,Saturday
7,-11.625
8,2.0
204,10.621120528774082
205,17430900.84365928
290,0.0
339,400.01282200778166
340,3374528.1576700183
416,18744.036887998802
441,18744.036887998802
627,7.427804627509035
655,0.7381424793582023
11,18037488.073776
2,3, 1, 3, 0, 9, 0.00,60.00,Saturday
7,-11.624999999999998
8,2.0
204,10.459222759738052
205,17433835.35080884
290,0.0
339,400.00578056583265
340,3348777.007921051
416,18744.036887998802
441,18744.036887998802
627,7.282088271361853
655,0.734610444914053
11,18037488.073776
2,3, 1, 3, 0,10, 0.00,60.00,Saturday
7,-11.15
8,3.25
204,10.321209877876282
205,17450418.384959914
290,0.0
339,400.00261107090085
340,3256505.8306819154
416,18744.036887998802
441,18744.036887998802
627,7.236928806756566
655,0.735402396581024
11,18037488.073776
2,3, 1, 3, 0,11, 0.00,60.00,Saturday
7,-11.0
8,5.25
204,10.15385230830612
205,17460152.82604094
290,0.0
339,400.00116899305203
340,3209832.631818545
416,18744.036887998802
441,18744.036887998802
627,7.124067558376545
655,0.7367661628722665
11,18037488.073776
2,3, 1, 3, 0,12, 0.00,60.00,Saturday
7,-10.5625
8,4.125
204,10.009779095436626
205,17473244.966568656
290,0.0
339,400.00052089451856
340,3119672.256307516
416,18744.036887998802
441,18744.036887998802
627,7.053376566108305
655,0.7331602190288451
11,18037488.073776
2,3, 1, 3, 0,13, 0.00,60.00,Saturday
7,-9.4875
8,3.625
204,9.909219549439964
205,17503832.079112783
290,0.0
339,400.00023479297226
340,2941092.871715597
416,18744.036887998802
441,18744.036887998802
627,7.124464412951811
655,0.7341017381257308
11,18037488.073776
2,3, 1, 3, 0,14, 0.00,60.00,Saturday
7,-8.375
8,3.375
204,9.845488071644656
205,17533075.10535022
290,0.0
339,400.00010556445164
340,2761183.136054391
416,18744.036887998802
441,18744.036887998802
627,7.224876085034494
655,0.7357834833755202
11,18037488.073776
2,3, 1, 3, 0,15, 0.00,60.00,Saturday
7,-7.375
8,3.625
204,9.817722224431751
205,17558962.75965763
290,0.0
339,400.000047512442
340,2604578.4727591136
416,18744.036887998802
441,18744.036887998802
627,7.342482131911341
655,0.7356743203387051
11,18037488.073776
2,3, 1, 3, 0,16, 0.00,60.00,Saturday
7,-6.375
8,4.625
204,9.819767783104101
205,17584394.070260953
290,0.0
339,400.00002132630493
340,2452367.230811154
416,18744.036887998802
441,18744.036887998802
627,7.487392234236431
655,0.7356590904444795
11,18037488.073776
2,3, 1, 3, 0,17, 0.00,60.00,Saturday
7,-6.625
8,3.75
204,9.842207492288367
205,17576731.136240024
290,0.0
339,400.000009552691
340,2493308.553990776
416,18744.036887998802
441,18744.036887998802
627,7.466964335512097
655,0.7357672087666312
11,18037488.073776
2,3, 1, 3, 0,18, 0.00,60.00,Saturday
7,-6.6875
8,3.625
204,9.877647397277332
205,17573039.83588673
290,0.0
339,400.0000043009877
340,2507751.337155621
416,18744.036887998802
441,18744.036887998802
627,7.4818224412991885
655,0.7340226904735145
11,18037488.073776
2,3, 1, 3, 0,19, 0.00,60.00,Saturday
7,-6.8125
8,4.0
204,9.908959463124043
205,17569886.497414574
290,0.0
339,400.0000019358521
340,2532245.0103507363
416,18744.036887998802
441,18744.036887998802
627,7.495633884337984
655,0.7349117884566618
11,18037488.073776
2,3, 1, 3, 0,20, 0.00,60.00,Saturday
7,-6.375
8,4.625
204,9.933509452684081
205,17581358.167236388
290,0.0
339,400.0000008683732
340,2469708.468313207
416,18744.036887998802
441,18744.036887998802
627,7.584651477932829
655,0.7360999946213648
11,18037488.073776
2,3, 1, 3, 0,21, 0.00,60.00,Saturday
7,-6.0625
8,5.625
204,9.939537573566007
205,17590601.25681827
290,0.0
339,400.0000003878302
340,2424635.3656589547
416,18744.036887998802
441,18744.036887998802
627,7.642599438202733
655,0.7345967366669142
11,18037488.073776
2,3, 1, 3, 0,22, 0.00,60.00,Saturday
7,-6.0375
8,6.0
204,9.928387425506454
205,17591881.965295672
290,0.0
339,400.00000017257906
340,2419355.7473037736
416,18744.036887998802
441,18744.036887998802
627,7.638725755076269
655,0.7351977967514557
11,18037488.073776
2,3, 1, 3, 0,23, 0.00,60.00,Saturday
7,-6.625
8,6.0
204,9.898583449392104
205,17578377.08939554
290,0.0
339,400.0000000766301
340,2505120.6384024946
416,18744.036887998802
441,18744.036887998802
627,7.533203350257029
655,0.7360770746193913
11,18037488.073776
2,3, 1, 3, 0,24, 0.00,60.00,Saturday
7,-7.0625
8,5.375
204,9.862230586281818
205,17567026.119403243
290,0.0
339,400.0000000340673
340,2565435.9801907456
416,18744.036887998802
441,18744.036887998802
627,7.4332029322700865
655,0.7346844468454707
11,18037488.073776
2,4, 1, 4, 0, 1, 0.00,60.00,Sunday
7,-7.6625
8,4.375
204,9.81861429765235
205,17553352.068030998
290,0.0
339,400.00000001524114
340,2650470.6710789762
416,18744.036887998802
441,18744.036887998802
627,7.312909870719193
655,0.7351454413418907
11,18037488.073776
2,4, 1, 4, 0, 2, 0.00,60.00,Sunday
7,-8.0
8,4.0
204,9.759787113338742
205,17546181.093547698
290,0.0
339,400.0000000068389
340,2692634.619170294
416,18744.036887998802
441,18744.036887998802
627,7.213809567175251
655,0.7357986751490044
11,18037488.073776
2,4, 1, 4, 0, 3, 0.00,60.00,Sunday
7,-7.75
8,4.625
204,9.69128751993113
205,17555218.195551477
290,0.0
339,400.00000000306795
340,2645050.379270428
416,18744.036887998802
441,18744.036887998802
627,7.195950217231817
655,0.7347540745983852
11,18037488.073776
2,4, 1, 4, 0, 4, 0.00,60.00,Sunday
7,-7.225
8,3.75
204,9.626760524294518
205,17570362.60526573
290,0.0
339,400.0000000013755
340,2555026.8724338836
416,18744.036887998802
441,18744.036887998802
627,7.216355287628547
655,0.7348819393078082
11,18037488.073776
2,4, 1, 4, 0, 5, 0.00,60.00,Sunday
7,-7.0
8,4.25
204,9.54482343912408
205,17580177.71697912
290,0.0
339,400.0000000006188
340,2509642.4004879566
416,18744.036887998802
441,18744.036887998802
627,7.189430122854562
655,0.7351399783871717
11,18037488.073776
2,4, 1, 4, 0, 6, 0.00,60.00,Sunday
7,-6.812499999999999
8,4.375
204,9.456021629130984
205,17586761.15345827
290,0.0
339,400.00000000027734
340,2467227.9638614412
416,18744.036887998802
441,18744.036887998802
627,7.137468550758154
655,0.7350747523937865
11,18037488.073776
2,4, 1, 4, 0, 7, 0.00,60.00,Sunday
7,-6.8875
8,4.0
204,9.370068638469423
205,17587398.436542016
290,0.0
339,400.0000000001246
340,2466453.1118738754
416,18744.036887998802
441,18744.036887998802
627,7.055066533090096
655,0.7347744661758541
11,18037488.073776
2,4, 1, 4, 0, 8, 0.00,60.00,Sunday
7,-7.0
8,4.625
204,9.276312495137041
205,17586877.269569263
290,0.0
339,400.00000000005605
340,2469367.055584483
416,18744.036887998802
441,18744.036887998802
627,6.958422961010667
655,0.7344277206304266
11,18037488.073776
2,4, 1, 4, 0, 9, 0.00,60.00,Sunday
7,-6.6875
8,5.0
204,9.195224775116124
205,17596474.91293432
290,0.0
339,400.00000000002524
340,2408921.1178919524
416,18744.036887998802
441,18744.036887998802
627,6.931221770660934
655,0.7350025485690883
11,18037488.073776
2,4, 1, 4, 0,10, 0.00,60.00,Sunday
7,-6.1875
8,6.25
204,9.123029063476224
205,17612223.4252076
290,0.0
339,400.0000000000113
340,2322333.6601434005
416,18744.036887998802
441,18744.036887998802
627,6.947421149739806
655,0.7344754350491194
11,18037488.073776
2,4, 1, 4, 0,11, 0.00,60.00,Sunday
7,-6.625
8,5.75
204,9.056860439761211
205,17601179.04220496
290,0.0
339,400.0000000000051
340,2378058.726831497
416,18744.036887998802
441,18744.036887998802
627,6.819285412538847
655,0.7338562924495234
11,18037488.073776
2,4, 1, 4, 0,12, 0.00,60.00,Sunday
7,-6.562500000000001
8,3.75
204,9.020001357128908
205,17601907.679825757
290,0.0
339,400.0000000000024
340,2361753.388431926
416,18744.036887998802
441,18744.036887998802
627,6.786615406985078
655,0.7349042179226635
11,18037488.073776
2,4, 1, 4, 0,13, 0.00,60.00,Sunday
7,-6.1125
8,4.25
204,8.992155905077823
205,17615278.847703796
290,0.0
339,400.00000000000125
340,2289869.295060792
416,18744.036887998802
441,18744.036887998802
627,6.833925413573787
655,0.7343998355267447
11,18037488.073776
2,4, 1, 4, 0,14, 0.00,60.00,Sunday
7,-6.0
8,4.375
204,8.981318798130944
205,17617360.521588035
290,0.0
339,400.00000000000057
340,2269861.6780496296
416,18744.036887998802
441,18744.036887998802
627,6.834868975217511
655,0.7337261748764825
11,18037488.073776
2,4, 1, 4, 0,15, 0.00,60.00,Sunday
7,-5.375
8,4.625
204,9.007403818917663
205,17632201.315378018
290,0.0
339,400.0000000000002
340,2177951.310194974
416,18744.036887998802
441,18744.036887998802
627,6.9442803827276744
655,0.7337752101042807
11,18037488.073776
2,4, 1, 4, 0,16, 0.00,60.00,Sunday
7,-5.0
8,4.375
204,9.059815934423744
205,17639689.858649712
290,0.0
339,400.0000000000003
340,2128316.509927114
416,18744.036887998802
441,18744.036887998802
627,7.038776209704549
655,0.7339135392962419
11,18037488.073776
2,4, 1, 4, 0,17, 0.00,60.00,Sunday
7,-5.0
8,3.375
204,9.132898085276803
205,17636397.678087004
290,0.0
339,400.00000000000034
340,2138745.457361214
416,18744.036887998802
441,18744.036887998802
627,7.093523374138618
655,0.7341502352459098
11,18037488.073776
2,4, 1, 4, 0,18, 0.00,60.00,Sunday
7,-5.125
8,3.0
204,9.21633394034149
205,17630596.703467254
290,0.0
339,400.0000000000003
340,2170484.540663279
416,18744.036887998802
441,18744.036887998802
627,7.144617713472255
655,0.7361860598558427
11,18037488.073776
2,4, 1, 4, 0,19, 0.00,60.00,Sunday
7,-5.075
8,2.375
204,9.300957308429362
205,17629730.342108376
290,0.0
339,400.0000000000003
340,2175809.3198314733
416,18744.036887998802
441,18744.036887998802
627,7.224576221407906
655,0.7357604461895104
11,18037488.073776
2,4, 1, 4, 0,20, 0.00,60.00,Sunday
7,-5.0
8,2.0
204,9.375196588990084
205,17630637.78363592
290,0.0
339,400.00000000000034
340,2176577.834003758
416,18744.036887998802
441,18744.036887998802
627,7.304064055154813
655,0.7349467474565319
11,18037488.073776
2,4, 1, 4, 0,21, 0.00,60.00,Sunday
7,-4.5
8,3.25
204,9.436341914760142
205,17642215.904950358
290,0.0
339,400.00000000000017
340,2110524.7290434605
416,18744.036887998802
441,18744.036887998802
627,7.430277469661235
655,0.7366496206196989
11,18037488.073776
2,4, 1, 4, 0,22, 0.00,60.00,Sunday
7,-4.075
8,2.75
204,9.491975459133172
205,17652240.594716705
290,0.0
339,400.00000000000017
340,2054881.0807845192
416,18744.036887998802
441,18744.036887998802
627,7.542328989337948
655,0.7362301621092494
11,18037488.073776
2,4, 1, 4, 0,23, 0.00,60.00,Sunday
7,-4.0
8,2.0
204,9.535316018936593
205,17654054.851898577
290,0.0
339,400.0000000000001
340,2050968.2183572815
416,18744.036887998802
441,18744.036887998802
627,7.59602229867577
655,0.735480905723622
11,18037488.073776
2,4, 1, 4, 0,24, 0.00,60.00,Sunday
7,-3.875
8,1.375
204,9.572145168551055
205,17655931.376200557
290,0.0
339,400.0000000000001
340,2037702.0067453845
416,18744.036887998802
441,18744.036887998802
627,7.643529089563369
655,0.7364645058825535
11,18037488.073776
2,5, 1, 5, 0, 1, 0.00,60.00,Monday
7,-4.55
8,3.5
204,9.58652103715342
205,17639431.257953722
290,0.0
339,400.00000000000017
340,2144093.719738352
416,18744.036887998802
441,18744.036887998802
627,7.565628718806474
655,0.7362709570970319
11,18037488.073776
2,5, 1, 5, 0, 2, 0.00,60.00,Monday
7,-5.0
8,3.75
204,9.602728344602053
205,17626432.557210524
290,0.0
339,400.0000000000001
340,2213025.9656360717
416,18744.036887998802
441,18744.036887998802
627,7.509097882386752
655,0.7358576246458849
11,18037488.073776
2,5, 1, 5, 0, 3, 0.00,60.00,Monday
7,-5.0
8,3.0
204,9.634621059662058
205,17626080.183714822
290,0.0
339,400.00000000000017
340,2217767.521446391
416,18744.036887998802
441,18744.036887998802
627,7.538952669540391
655,0.7359139059646126
11,18037488.073776
2,5, 1, 5, 0, 4, 0.00,60.00,Monday
7,-5.625
8,3.625
204,9.645772601152885
205,17610033.73841231
290,0.0
339,400.00000000000017
340,2315186.3815234606
416,18744.036887998802
441,18744.036887998802
627,7.460066534422069
655,0.7359557158471872
11,18037488.073776
2,5, 1, 5, 0, 5, 0.00,60.00,Monday
7,-6.0
8,3.375
204,9.657595862760875
205,17598915.272306174
290,0.0
339,400.00000000000017
340,2373049.0476241503
416,18744.036887998802
441,18744.036887998802
627,7.4094823622853205
655,0.7359867515456913
11,18037488.073776
2,5, 1, 5, 0, 6, 0.00,60.00,Monday
7,-6.749999999999999
8,3.0
204,9.664066433351618
205,17579695.57661752
290,0.0
339,400.0000000000003
340,2488484.855845707
416,18744.036887998802
441,18744.036887998802
627,7.308136999664125
655,0.7353200014547498
11,18037488.073776
2,5, 1, 5, 0, 7, 0.00,60.00,Monday
7,-7.7
8,3.0
204,9.65708991102991
205,17554544.812449586
290,0.0
339,400.0000000000003
340,2631144.862260447
416,18744.036887998802
441,18744.036887998802
627,7.160060466427442
655,0.7356058682288094
11,18037488.073776
2,5, 1, 5, 0, 8, 0.00,60.00,Monday
7,-8.625
8,2.375
204,9.64649453532941
205,17530344.104428217
290,0.0
339,400.00000000000034
340,2769368.827461637
416,18744.036887998802
441,18744.036887998802
627,7.013640048027028
655,0.7360165774289908
11,18037488.073776
2,5, 1, 5, 0, 9, 0.00,60.00,Monday
7,-9.125
8,2.0
204,9.633351714805935
205,17517319.563705992
290,0.0
339,400.0000000000001
340,2842413.9054544386
416,18744.036887998802
441,18744.036887998802
627,6.927249154915294
655,0.7343036803924287
11,18037488.073776
2,5, 1, 5, 0,10, 0.00,60.00,Monday
7,-9.7
8,2.0
204,11.32480471804032
205,17414994.99677096
290,0.0
339,504.8365727188124
340,3143738.2550486084
416,18744.036887998802
441,18744.036887998802
627,8.044976671474728
655,0.738918001690932
11,24816288.073776
2,5, 1, 5, 0,11, 0.00,60.00,Monday
7,-10.0
8,2.0
204,11.986173106226463
205,17423902.662128814
290,0.0
339,699.0598556851683
340,3323582.7165366383
416,18744.036887998802
441,18744.036887998802
627,8.756984987172821
655,0.742328292875842
11,26346288.073776
2,5, 1, 5, 0,12, 0.00,60.00,Monday
7,-9.8125
8,2.625
204,12.10110987962086
205,17428644.335151255
290,0.0
339,821.9637613919873
340,3315064.3766670106
416,18744.036887998802
441,18744.036887998802
627,8.899300916867489
655,0.740100836167041
11,26346288.073776
2,5, 1, 5, 0,13, 0.00,60.00,Monday
7,-9.8875
8,2.375
204,12.185811127741832
205,17424691.561547134
290,0.0
339,875.7605283122447
340,3339266.8580006994
416,18744.036887998802
441,18744.036887998802
627,8.962510381686885
655,0.7415169008058243
11,26346288.073776
2,5, 1, 5, 0,14, 0.00,60.00,Monday
7,-10.0
8,2.0
204,10.329631078282947
205,17502181.90957682
290,0.0
339,787.4885002387131
340,3105839.6734814947
416,18744.036887998802
441,18744.036887998802
627,7.5405780511485405