Program Version,EnergyPlus, Version 25.2.0-cf7368216c, YMD=2026.04.06 12:22
1,5,Environment Title[],Latitude[deg],Longitude[deg],Time Zone[],Elevation[m]
2,8,Day of Simulation[],Month[],Day of Month[],DST Indicator[1=yes 0=no],Hour[],StartMinute[],EndMinute[],DayType
3,5,Cumulative Day of Simulation[],Month[],Day of Month[],DST Indicator[1=yes 0=no],DayType  ! When Daily Report Variables Requested
4,2,Cumulative Days of Simulation[],Month[]  ! When Monthly Report Variables Requested
5,1,Cumulative Days of Simulation[] ! When Run Period Report Variables Requested
6,1,Calendar Year of Simulation[] ! When Annual Report Variables Requested
7,1,Environment,Site Outdoor Air Drybulb Temperature [C] !Hourly
8,1,Environment,Site Wind Speed [m/s] !Hourly
204,1,MAINZONE,Zone Mean Air Temperature [C] !Hourly
205,1,MAINZONE,Zone Air System Sensible Heating Energy [J] !Hourly
290,1,MAINZONE,Zone Air System Sensible Cooling Energy [J] !Hourly
339,1,MAINZONE,Zone Air CO2 Concentration [ppm] !Hourly
340,1,LAB_HX,Heat Exchanger Sensible Heating Energy [J] !Hourly
416,1,SUPPLY_FAN,Fan Electricity Energy [J] !Hourly
441,1,EXHAUST_FAN,Fan Electricity Energy [J] !Hourly
627,1,ERV_SA_OUTLET,System Node Temperature [C] !Hourly
655,1,MAINZONE,Zone Mechanical Ventilation Air Changes per Hour [ach] !Hourly
11,1,Electricity:Facility [J] !Hourly
End of Data Dictionary
1,ANNUAL,  50.39,  30.54,   2.00, 178.60
2,1, 1, 1, 0, 1, 0.00,60.00,Thursday
7,-7.05
8,2.375
204,16.0
205,441159.15418493457
290,0.0
339,403.6403072983644
340,3494020.6780409776
416,18744.036887998802
441,18744.036887998802
627,12.64728883986663
655,0.7539874014649108
11,1078673.2207569368
2,1, 1, 1, 0, 2, 0.00,60.00,Thursday
7,-9.625
8,1.375
204,16.0
205,527766.2362903975
290,0.0
339,401.61251143456104
340,3882123.2932290607
416,18744.036887998802
441,18744.036887998802
627,12.261094721110716
655,0.7543544025467808
11,1234051.6469816011
2,1, 1, 1, 0, 3, 0.00,60.00,Thursday
7,-9.0625
8,1.625
204,16.0
205,569428.8470393016
290,0.0
339,400.7160886777792
340,3796870.2908023326
416,18744.036887998802
441,18744.036887998802
627,12.345514866665535
655,0.7492657753204174
11,1260286.4145693942
2,1, 1, 1, 0, 4, 0.00,60.00,Thursday
7,-10.0625
8,0.75
204,16.0
205,623309.0285119633
290,0.0
339,400.3192185948374
340,3947105.2831054414
416,18744.036887998802
441,18744.036887998802
627,12.195558886240068
655,0.7509354013775742
11,1340675.0868600516
2,1, 1, 1, 0, 5, 0.00,60.00,Thursday
7,-11.0
8,0.0
204,16.0
205,676044.8009095256
290,0.0
339,400.14185963670474
340,4088746.6803841875
416,18744.036887998802
441,18744.036887998802
627,12.05497290062955
655,0.7535686490610098
11,1418239.5098815807
2,1, 1, 1, 0, 6, 0.00,60.00,Thursday
7,-9.625
8,1.25
204,16.0
205,699560.5405579946
290,0.0
339,400.0630616439858
340,3881484.379806039
416,18744.036887998802
441,18744.036887998802
627,12.26125095532201
655,0.7493598723041296
11,1404669.7258578523
2,1, 1, 1, 0, 7, 0.00,60.00,Thursday
7,-9.55
8,1.375
204,16.0
205,734199.9659288517
290,0.0
339,400.0281049733385
340,3869902.850624791
416,18744.036887998802
441,18744.036887998802
627,12.272526989341724
655,0.7507368403420339
11,1437106.2767728078
2,1, 1, 1, 0, 8, 0.00,60.00,Thursday
7,-10.625
8,1.0
204,20.800697166280788
205,9594386.923389468
290,0.0
339,400.0155240706126
340,4736155.072251107
416,18744.036887998802
441,18744.036887998802
627,16.06506761613548
655,0.7649475742553011
11,10477055.113346638
2,1, 1, 1, 0, 9, 0.00,60.00,Thursday
7,-8.75
8,1.625
204,20.999999999641858
205,9346690.394296596
290,0.0
339,400.0073237527994
340,4507110.236997917
416,18744.036887998802
441,18744.036887998802
627,16.642564084859075
655,0.7627701509379389
11,10161701.869735861
2,1, 1, 1, 0,10, 0.00,60.00,Thursday
7,-9.025
8,1.375
204,20.999999999999996
205,4337560.963644897
290,0.0
339,559.2507831073734
340,4548401.1810306925
416,18744.036887998802
441,18744.036887998802
627,16.60128404400612
655,0.7644731301579296
11,11939020.060361842
2,1, 1, 1, 0,11, 0.00,60.00,Thursday
7,-8.125
8,1.625
204,20.999999999999996
205,3176308.3791986825
290,0.0
339,755.9090666744985
340,4412985.598278085
416,18744.036887998802
441,18744.036887998802
627,16.736153612799033
655,0.7671550709195525
11,12284762.428901564
2,1, 1, 1, 0,12, 0.00,60.00,Thursday
7,-5.000000000000001
8,2.625
204,21.0
205,2965155.879644419
290,0.0
339,838.7053534149074
340,3940998.35819289
416,18744.036887998802
441,18744.036887998802
627,17.204781164662624
655,0.765557451389852
11,11990728.941774517
2,1, 1, 1, 0,13, 0.00,60.00,Thursday
7,-3.925
8,3.625
204,21.0
205,2821040.346610182
290,0.0
339,874.3468312446474
340,3778632.3748958125
416,18744.036887998802
441,18744.036887998802
627,17.36592646223461
655,0.7671228144252541
11,11818526.86231882
2,1, 1, 1, 0,14, 0.00,60.00,Thursday
7,-2.75
8,4.0
204,21.0
205,8082777.748971529
290,0.0
339,745.3274112699967
340,3600819.076486759
416,18744.036887998802
441,18744.036887998802
627,17.542126632236272
655,0.7685066102895268
11,8959109.071597964
2,1, 1, 1, 0,15, 0.00,60.00,Thursday
7,-0.8750000000000001
8,4.625
204,21.0
205,3528575.0935099246
290,0.0
339,718.1662324162564
340,3319336.413294045
416,18744.036887998802
441,18744.036887998802
627,17.82337075256456
655,0.7678233138251593
11,10914349.90793033
2,1, 1, 1, 0,16, 0.00,60.00,Thursday
7,-0.075
8,4.375
204,21.0
205,2500873.4171088804
290,0.0
339,822.4063537191951
340,3199932.648362007
416,18744.036887998802
441,18744.036887998802
627,17.943267610164146
655,0.7687946051370872
11,11395733.265971655
2,1, 1, 1, 0,17, 0.00,60.00,Thursday
7,-1.25
8,4.625
204,21.0
205,2440979.702995631
290,0.0
339,864.7572942411447
340,3375143.356177854
416,18744.036887998802
441,18744.036887998802
627,17.766946548448402
655,0.7699074050972323
11,11368046.11018287
2,1, 1, 1, 0,18, 0.00,60.00,Thursday
7,-2.0625
8,3.75
204,20.999999999999996
205,2353412.843809454
290,0.0
339,882.869493339278
340,3497131.679548457
416,18744.036887998802
441,18744.036887998802
627,17.645017581647608
655,0.7697382019002907
11,11302784.202747319
2,1, 1, 1, 0,19, 0.00,60.00,Thursday
7,-3.9125
8,3.0
204,20.999999999999996
205,7942887.130810512
290,0.0
339,733.5811030722807
340,3777398.0993069117
416,18744.036887998802
441,18744.036887998802
627,17.36751180307313
655,0.7699035321505491
11,8633386.614987124
2,1, 1, 1, 0,20, 0.00,60.00,Thursday
7,-5.625
8,2.375
204,16.661468726215038
205,128300.63220296986
290,276581.16787673323
339,577.0263269600947
340,3414490.0007730518
416,18744.036887998802
441,18744.036887998802
627,13.626327506785856
655,0.7564719035791854
11,434207.82018749823
2,1, 1, 1, 0,21, 0.00,60.00,Thursday
7,-5.0
8,2.625
204,16.00000077335526
205,212882.94283065564
290,0.0
339,496.3435900333522
340,3183983.55619337
416,18744.036887998802
441,18744.036887998802
627,12.95456805584921
655,0.7551497659507449
11,796800.4688209252
2,1, 1, 1, 0,22, 0.00,60.00,Thursday
7,-4.15
8,3.0
204,16.00000000002401
205,292482.68036460836
290,0.0
339,441.941645900149
340,3055873.720235679
416,18744.036887998802
441,18744.036887998802
627,13.082127442622431
655,0.7549322193337112
11,853085.5916598897
2,1, 1, 1, 0,23, 0.00,60.00,Thursday
7,-4.0
8,2.375
204,16.0
205,343286.03381420544
290,0.0
339,418.56158069719015
340,3033169.883292785
416,18744.036887998802
441,18744.036887998802
627,13.104687412784111
655,0.7550143053873375
11,899492.8814596061
2,1, 1, 1, 0,24, 0.00,60.00,Thursday
7,-3.875
8,2.625
204,16.0
205,407021.6246826879
290,0.0
339,408.22086292648885
340,3014712.018997758
416,18744.036887998802
441,18744.036887998802
627,13.123485637167377
655,0.7537392318103979
11,959566.8129926785
2,2, 1, 2, 0, 1, 0.00,60.00,Friday
7,-3.925
8,3.625
204,16.0
205,482085.0547649304
290,0.0
339,403.6368555724975
340,3022772.3839951362
416,18744.036887998802
441,18744.036887998802
627,13.116024900857134
655,0.7538132003547171
11,1035723.9014308614
2,2, 1, 2, 0, 2, 0.00,60.00,Friday
7,-4.0
8,3.375
204,16.0
205,530058.2057779899
290,0.0
339,401.60419275875495
340,3034252.3072667615
416,18744.036887998802
441,18744.036887998802
627,13.104809277290169
655,0.7541174851875385
11,1085501.5851399624
2,2, 1, 2, 0, 3, 0.00,60.00,Friday
7,-4.0
8,3.625
204,16.0
205,582975.3639296561
290,0.0
339,400.7087063267593
340,3034252.3072667615
416,18744.036887998802
441,18744.036887998802
627,13.104838776767025
655,0.7539086201889384
11,1138242.06500435
2,2, 1, 2, 0, 4, 0.00,60.00,Friday
7,-4.0
8,3.375
204,16.0
205,622313.0680857392
290,0.0
339,400.31271599570186
340,3035025.91291677
416,18744.036887998802
441,18744.036887998802
627,13.104859636566141
655,0.7537377563441463
11,1177431.6450832682
2,2, 1, 2, 0, 5, 0.00,60.00,Friday
7,-4.0
8,4.875
204,16.0
205,699461.4235608212
290,0.0
339,400.1379635176077
340,3034039.7557646707
416,18744.036887998802
441,18744.036887998802
627,13.104883760263093
655,0.7535974471748212
11,1254465.2925491605
2,2, 1, 2, 0, 6, 0.00,60.00,Friday
7,-4.375
8,5.375
204,16.0
205,760451.5878609223
290,0.0
339,400.06037268451183
340,3088871.9013350606
416,18744.036887998802
441,18744.036887998802
627,13.048667732115133
655,0.7513751306055124
11,1325364.7492812194
2,2, 1, 2, 0, 7, 0.00,60.00,Friday
7,-6.1
8,5.0
204,16.0
205,826153.9027578866
290,0.0
339,400.02650963363465
340,3348422.650150012
416,18744.036887998802
441,18744.036887998802
627,12.789955312927356
655,0.7520930644803522
11,1437116.8334272588
2,2, 1, 2, 0, 8, 0.00,60.00,Friday
7,-7.625
8,3.75
204,20.798338167970293
205,9846084.829001492
290,0.0
339,400.0145222837514
340,4282971.162400202
416,18744.036887998802
441,18744.036887998802
627,16.512333551264025
655,0.7650929914940987
11,10649019.749094829
2,2, 1, 2, 0, 9, 0.00,60.00,Friday
7,-7.562500000000001
8,4.25
204,20.9999999996417
205,9585162.54581996
290,0.0
339,400.00681251666845
340,4327520.806845282
416,18744.036887998802
441,18744.036887998802
627,16.820632453945823
655,0.7629030051985801
11,10368863.729948312
2,2, 1, 2, 0,10, 0.00,60.00,Friday
7,-8.3625
8,4.375
204,21.0
205,4608030.900916368
290,0.0
339,558.7804933700702
340,4448423.618617731
416,18744.036887998802
441,18744.036887998802
627,16.7006110233517
655,0.7646470649063071
11,12192159.125646017
2,2, 1, 2, 0,11, 0.00,60.00,Friday
7,-9.0
8,4.625
204,21.0
205,3480028.527573787
290,0.0
339,753.6770665058789
340,4543895.220366593
416,18744.036887998802
441,18744.036887998802
627,16.604870945971257
655,0.7674766277450316
11,12612297.719479937
2,2, 1, 2, 0,12, 0.00,60.00,Friday
7,-8.0
8,3.75
204,21.0
205,3243969.3631678754
290,0.0
339,835.4091155286812
340,4392713.5847392725
416,18744.036887998802
441,18744.036887998802
627,16.75476855761816
655,0.7641154833029717
11,12350292.503120618
2,2, 1, 2, 0,13, 0.00,60.00,Friday
7,-7.775
8,3.625
204,21.0
205,3079243.186281049
290,0.0
339,872.8069562956842
340,4358314.181912404
416,18744.036887998802
441,18744.036887998802
627,16.788431198373125
655,0.7663433943820939
11,12180293.772430439
2,2, 1, 2, 0,14, 0.00,60.00,Friday
7,-7.375
8,3.375
204,21.0
205,8335995.786191701
290,0.0
339,744.6289496524248
340,4297301.354242496
416,18744.036887998802
441,18744.036887998802
627,16.84839871522701
655,0.7687433216149508
11,9336664.023875553
2,2, 1, 2, 0,15, 0.00,60.00,Friday
7,-6.4375
8,3.0
204,21.0
205,3772406.661857274
290,0.0
339,718.8811909671481
340,4155017.957088975
416,18744.036887998802
441,18744.036887998802
627,16.98904707383121
655,0.7648413129678919
11,11307597.69272196
2,2, 1, 2, 0,16, 0.00,60.00,Friday
7,-6.6625
8,2.375
204,21.0
205,2756220.194317685
290,0.0
339,825.2309934159197
340,4190263.4292352917
416,18744.036887998802
441,18744.036887998802
627,16.95522283839924
655,0.7669502031250923
11,11828045.733232714
2,2, 1, 2, 0,17, 0.00,60.00,Friday
7,-8.25
8,2.0
204,21.0
205,2684957.545099077
290,0.0
339,868.188506280833
340,4429248.788762778
416,18744.036887998802
441,18744.036887998802
627,16.717036570467783
655,0.7698697174521398
11,11800082.98374286
2,2, 1, 2, 0,18, 0.00,60.00,Friday
7,-8.375
8,2.0
204,21.0
205,2604010.1258865846
290,0.0
339,887.2085446946294
340,4447316.154064209
416,18744.036887998802
441,18744.036887998802
627,16.698237699638913
655,0.7663007680085877
11,11722957.332606886
2,2, 1, 2, 0,19, 0.00,60.00,Friday
7,-9.25
8,2.0
204,21.0
205,8188398.834797026
290,0.0
339,737.2142109944832
340,4579646.314434611
416,18744.036887998802
441,18744.036887998802
627,16.566989538361202
655,0.7676625296845928
11,9022104.86211452
2,2, 1, 2, 0,20, 0.00,60.00,Friday
7,-10.0
8,2.0
204,16.873917904994656
205,105502.68263801475
290,439960.772646474
339,589.5686663503916
340,4108547.077406004
416,18744.036887998802
441,18744.036887998802
627,13.170720802463272
655,0.7567832362075697
11,367428.42811150063
2,2, 1, 2, 0,21, 0.00,60.00,Friday
7,-9.3125
8,2.0
204,16.00000805792417
205,347015.7017138428
290,0.0
339,498.6123937720546
340,3833234.9352982403
416,18744.036887998802
441,18744.036887998802
627,12.307868660674213
655,0.7517865383121646
11,1046427.995857117
2,2, 1, 2, 0,22, 0.00,60.00,Friday
7,-9.5875
8,1.375
204,16.0000000002442
205,427907.68456729833
290,0.0
339,443.25157103865297
340,3874624.503116204
416,18744.036887998802
441,18744.036887998802
627,12.26660440039076
655,0.7528340840990021
11,1134126.5577248884
2,2, 1, 2, 0,23, 0.00,60.00,Friday
7,-10.0
8,1.0
204,16.000000000000007
205,501597.8039932146
290,0.0
339,419.2039943323855
340,3936734.2617638875
416,18744.036887998802
441,18744.036887998802
627,12.204798628682513
655,0.7547554293785421
11,1218372.1994129953
2,2, 1, 2, 0,24, 0.00,60.00,Friday
7,-9.25
8,1.0
204,16.0
205,554648.4514746866
290,0.0
339,408.5240844965384
340,3823654.690936405
416,18744.036887998802
441,18744.036887998802
627,12.317355399527855
655,0.7506587522724031
11,1250844.1385009645
2,3, 1, 3, 0, 1, 0.00,60.00,Saturday
7,-9.55
8,1.0
204,16.0
205,618723.8020603866
290,0.0
339,403.7974208874326
340,3868887.0573386494
416,18744.036887998802
441,18744.036887998802
627,12.272405300334071
655,0.7517817606835306
11,1322589.8843452507
2,3, 1, 3, 0, 2, 0.00,60.00,Saturday
7,-10.0
8,1.0
204,16.0
205,678355.1939624621
290,0.0
339,401.6864473657514
340,3936734.261763874
416,18744.036887998802
441,18744.036887998802
627,12.204950005482042
655,0.7536829460343877
11,1393950.6656923508
2,3, 1, 3, 0, 3, 0.00,60.00,Saturday
7,-9.6875
8,1.625
204,16.0
205,729448.6122239179
290,0.0
339,400.7491029755735
340,3889402.5056770537
416,18744.036887998802
441,18744.036887998802
627,12.251863206350079
655,0.7501297072957944
11,1436375.8552135644
2,3, 1, 3, 0, 4, 0.00,60.00,Saturday
7,-10.4375
8,2.625
204,16.0
205,805067.0453354116
290,0.0
339,400.3331629643492
340,4002470.866307267
416,18744.036887998802
441,18744.036887998802
627,12.139398483649884
655,0.7512400583296959
11,1531822.0020350714
2,3, 1, 3, 0, 5, 0.00,60.00,Saturday
7,-11.0
8,2.375
204,16.0
205,852812.9795734341
290,0.0
339,400.14748455037557
340,4087346.394875011
416,18744.036887998802
441,18744.036887998802
627,12.055055289723647
655,0.7530157238603322
11,1594385.5263841387
2,3, 1, 3, 0, 6, 0.00,60.00,Saturday
7,-10.3125
8,2.625
204,16.0
205,885296.2569121632
290,0.0
339,400.06538943859823
340,3983763.606004334
416,18744.036887998802
441,18744.036887998802
627,12.158204820039408
655,0.7497150405539723
11,1608256.2437763354
2,3, 1, 3, 0, 7, 0.00,60.00,Saturday
7,-10.5875
8,2.375
204,16.0
205,924129.9577866786
290,0.0
339,400.02904413995196
340,4025196.7225878416
416,18744.036887998802
441,18744.036887998802
627,12.116977041597512
655,0.7508085800173332
11,1654278.7265619559
2,3, 1, 3, 0, 8, 0.00,60.00,Saturday
7,-11.625
8,2.0
204,15.999999999999998
205,975553.1638434527
290,0.0
339,400.0128837040982
340,4181957.79962219
416,18744.036887998802
441,18744.036887998802
627,11.961372660195062
655,0.752583685855732
11,1733302.328896279
2,3, 1, 3, 0, 9, 0.00,60.00,Saturday
7,-11.624999999999998
8,2.0
204,16.0
205,1004808.9783511838
290,0.0
339,400.0057181929973
340,4182210.3160147937
416,18744.036887998802
441,18744.036887998802
627,11.961388826910797
655,0.749346342110925
11,1762417.9584202487
2,3, 1, 3, 0,10, 0.00,60.00,Saturday
7,-11.15
8,3.25
204,16.0
205,1023034.2534433532
290,0.0
339,400.00254202546915
340,4110771.608417107
416,18744.036887998802
441,18744.036887998802
627,12.032650737961628
655,0.7504649040689353
11,1767827.8968044594
2,3, 1, 3, 0,11, 0.00,60.00,Saturday
7,-11.0
8,5.25
204,16.0
205,1113321.4411718552
290,0.0
339,400.0011194591229
340,4088251.5279113795
416,18744.036887998802
441,18744.036887998802
627,12.05516080337146
655,0.75225172237744
11,1854016.8695688115
2,3, 1, 3, 0,12, 0.00,60.00,Saturday
7,-10.5625
8,4.125
204,16.0
205,1121117.7846351163
290,0.0
339,400.00049038970246
340,4022481.475471802
416,18744.036887998802
441,18744.036887998802
627,12.120792878522867
655,0.748908451321187
11,1850044.5869561164
2,3, 1, 3, 0,13, 0.00,60.00,Saturday
7,-9.4875
8,3.625
204,16.0
205,1121182.8374549975
290,0.0
339,400.0002172997693
340,3860050.6129996665
416,18744.036887998802
441,18744.036887998802
627,12.282047046058242
655,0.7501025570567045
11,1821325.5455137575
2,3, 1, 3, 0,14, 0.00,60.00,Saturday
7,-8.375
8,3.375
204,15.999999999999998
205,1125437.1578172704
290,0.0
339,400.0000960180582
340,3692124.571003201
416,18744.036887998802
441,18744.036887998802
627,12.448923266548487
655,0.7519608326641453
11,1795811.5999492146
2,3, 1, 3, 0,15, 0.00,60.00,Saturday
7,-7.375
8,3.625
204,16.0
205,1148523.6497563513
290,0.0
339,400.00004246893303
340,3541056.0055124834
416,18744.036887998802
441,18744.036887998802
627,12.596310706025028
655,0.7518984296168183
11,1792625.3462481056
2,3, 1, 3, 0,16, 0.00,60.00,Saturday
7,-6.375
8,4.625
204,16.0
205,1195337.5882618953
290,0.0
339,400.0000187316922
340,3389650.7347565554
416,18744.036887998802
441,18744.036887998802
627,12.745316011816831
655,0.7518561884103481
11,1812897.534448191
2,3, 1, 3, 0,17, 0.00,60.00,Saturday
7,-6.625
8,3.75
204,16.0
205,1218441.823196368
290,0.0
339,400.00000824490746
340,3427619.53995033
416,18744.036887998802
441,18744.036887998802
627,12.708180276358418
655,0.751888690955806
11,1842636.7224823618
2,3, 1, 3, 0,18, 0.00,60.00,Saturday
7,-6.6875
8,3.625
204,16.0
205,1253072.2178171668
290,0.0
339,400.0000036485732
340,3437195.1409929018
416,18744.036887998802
441,18744.036887998802
627,12.694378973972738
655,0.7499968686914312
11,1879745.2969204339
2,3, 1, 3, 0,19, 0.00,60.00,Saturday
7,-6.8125
8,4.0
204,16.0
205,1300609.5789893277
290,0.0
339,400.0000016142509
340,3456338.9014811106
416,18744.036887998802
441,18744.036887998802
627,12.678715249742048
655,0.7508091792211633
11,1930109.8025457608
2,3, 1, 3, 0,20, 0.00,60.00,Saturday
7,-6.375
8,4.625
204,16.0
205,1345314.0250722517
290,0.0
339,400.0000007117971
340,3390137.0287410812
416,18744.036887998802
441,18744.036887998802
627,12.748031194291809
655,0.751946157858823
11,1962473.2051805994
2,3, 1, 3, 0,21, 0.00,60.00,Saturday
7,-6.0625
8,5.625
204,16.0
205,1408117.729521346
290,0.0
339,400.00000031248686
340,3342821.056676264
416,18744.036887998802
441,18744.036887998802
627,12.792755322493
655,0.7503842680907897
11,2017310.255829354
2,3, 1, 3, 0,22, 0.00,60.00,Saturday
7,-6.0375
8,6.0
204,16.0
205,1457419.9382097858
290,0.0
339,400.00000013667335
340,3339111.3335875007
416,18744.036887998802
441,18744.036887998802
627,12.797971200986943
655,0.7510189556709599
11,2065697.3811330206
2,3, 1, 3, 0,23, 0.00,60.00,Saturday
7,-6.625
8,6.0
204,16.0
205,1508648.2879676344
290,0.0
339,400.00000005964387
340,3428163.334087152
416,18744.036887998802
441,18744.036887998802
627,12.711216623581942
655,0.7519885031302453
11,2132395.0511781597
2,3, 1, 3, 0,24, 0.00,60.00,Saturday
7,-7.0625
8,5.375
204,16.0
205,1533294.8212781246
290,0.0
339,400.0000000260578
340,3494465.4137116876
416,18744.036887998802
441,18744.036887998802
627,12.644492469587435
655,0.7506556009478627
11,2168937.781807454
2,4, 1, 4, 0, 1, 0.00,60.00,Sunday
7,-7.6625
8,4.375
204,16.0
205,1548972.0882912057
290,0.0
339,400.0000000114571
340,3584957.329859527
416,18744.036887998802
441,18744.036887998802
627,12.555762686614395
655,0.75123693518915
11,2200435.532236961
2,4, 1, 4, 0, 2, 0.00,60.00,Sunday
7,-8.0
8,4.0
204,16.0
205,1578718.1494670918
290,0.0
339,400.00000000505213
340,3635648.7353566997
416,18744.036887998802
441,18744.036887998802
627,12.505155113620267
655,0.7520558170381926
11,2239187.4048026213
2,4, 1, 4, 0, 3, 0.00,60.00,Sunday
7,-7.75
8,4.625
204,16.0
205,1626607.4173719059
290,0.0
339,400.0000000022267
340,3597986.262786731
416,18744.036887998802
441,18744.036887998802
627,12.542656915124175
655,0.7511657629202658
11,2280372.9806653108
2,4, 1, 4, 0, 4, 0.00,60.00,Sunday
7,-7.225
8,3.75
204,16.0
205,1625570.5093158926
290,0.0
339,400.0000000009807
340,3518327.146624271
416,18744.036887998802
441,18744.036887998802
627,12.621409167082206
655,0.751464429009822
11,2265286.9806477185
2,4, 1, 4, 0, 5, 0.00,60.00,Sunday
7,-7.0
8,4.25
204,16.0
205,1668269.0564937445
290,0.0
339,400.00000000043354
340,3483569.098731988
416,18744.036887998802
441,18744.036887998802
627,12.655164699920984
655,0.7519429793134884
11,2301952.029828499
2,4, 1, 4, 0, 6, 0.00,60.00,Sunday
7,-6.812499999999999
8,4.375
204,16.0
205,1700235.512159581
290,0.0
339,400.000000000191
340,3455528.856610085
416,18744.036887998802
441,18744.036887998802
627,12.683292169459744
655,0.7521096592104687
11,2328877.7891973513
2,4, 1, 4, 0, 7, 0.00,60.00,Sunday
7,-6.8875
8,4.0
204,16.0
205,1723258.790016859
290,0.0
339,400.00000000008436
340,3467406.7226459673
416,18744.036887998802
441,18744.036887998802
627,12.670657218919713
655,0.7520291544644024
11,2354144.7780221975
2,4, 1, 4, 0, 8, 0.00,60.00,Sunday
7,-7.0
8,4.625
204,16.0
205,1776147.6280313397
290,0.0
339,400.0000000000374
340,3484497.184660457
416,18744.036887998802
441,18744.036887998802
627,12.653346765510776
655,0.751922327238773
11,2410126.943176488
2,4, 1, 4, 0, 9, 0.00,60.00,Sunday
7,-6.6875
8,5.0
204,16.0
205,1812621.1944587566
290,0.0
339,400.00000000001666
340,3437203.2959359093
416,18744.036887998802
441,18744.036887998802
627,12.699673161464753
655,0.752725694988801
11,2438352.044247562
2,4, 1, 4, 0,10, 0.00,60.00,Sunday
7,-6.1875
8,6.25
204,16.0
205,1871670.583893035
290,0.0
339,400.0000000000074
340,3361300.181729784
416,18744.036887998802
441,18744.036887998802
627,12.776684854459768
655,0.7523770095081047
11,2483683.8068678854
2,4, 1, 4, 0,11, 0.00,60.00,Sunday
7,-6.625
8,5.75
204,16.0
205,1888215.6481679585
290,0.0
339,400.0000000000033
340,3427774.5555165373
416,18744.036887998802
441,18744.036887998802
627,12.707415850379235
655,0.7519179446337821
11,2512573.483333202
2,4, 1, 4, 0,12, 0.00,60.00,Sunday
7,-6.562500000000001
8,3.75
204,16.0
205,1856334.2552502276
290,0.0
339,400.00000000000153
340,3418459.374010395
416,18744.036887998802
441,18744.036887998802
627,12.712283732606728
655,0.7530897986914113
11,2479850.653402946
2,4, 1, 4, 0,13, 0.00,60.00,Sunday
7,-6.1125
8,4.25
204,16.0
205,1893470.7472198836
290,0.0
339,400.0000000000007
340,3350496.768034487
416,18744.036887998802
441,18744.036887998802
627,12.781782759701965
655,0.7526470667246865
11,2504636.2797127683
2,4, 1, 4, 0,14, 0.00,60.00,Sunday
7,-6.0
8,4.375
204,16.0
205,1927675.4426250947
290,0.0
339,400.00000000000017
340,3333608.557068968
416,18744.036887998802
441,18744.036887998802
627,12.800521122540376
655,0.7519852124734239
11,2535527.695903196
2,4, 1, 4, 0,15, 0.00,60.00,Sunday
7,-5.375
8,4.625
204,16.0
205,1957477.148366643
290,0.0
339,400.0000000000003
340,3239020.7948924443
416,18744.036887998802
441,18744.036887998802
627,12.894849808323874
655,0.7519655508492731
11,2548533.629202845
2,4, 1, 4, 0,16, 0.00,60.00,Sunday
7,-5.0
8,4.375
204,16.0
205,1983086.8456120722
290,0.0
339,400.0000000000001
340,3182316.2150886473
416,18744.036887998802
441,18744.036887998802
627,12.948639099962215
655,0.7519673736701024
11,2564574.6571470355
2,4, 1, 4, 0,17, 0.00,60.00,Sunday
7,-5.0
8,3.375
204,16.0
205,1999024.9805258296
290,0.0
339,400.0000000000001
340,3182521.522062103
416,18744.036887998802
441,18744.036887998802
627,12.944247853530511
655,0.7520153374900064
11,2581330.816878562
2,4, 1, 4, 0,18, 0.00,60.00,Sunday
7,-5.125
8,3.0
204,16.0
205,2027068.3553200874
290,0.0
339,400.0000000000001
340,3201768.5613224977
416,18744.036887998802
441,18744.036887998802
627,12.924461134999843
655,0.7538782682710464
11,2612953.9867901327
2,4, 1, 4, 0,19, 0.00,60.00,Sunday
7,-5.075
8,2.375
204,16.0
205,2050118.1719610943
290,0.0
339,400.0000000000001
340,3194490.7104095737
416,18744.036887998802
441,18744.036887998802
627,12.933845346918782
655,0.7532171082528025
11,2634381.906093423
2,4, 1, 4, 0,20, 0.00,60.00,Sunday
7,-5.0
8,2.0
204,16.0
205,2077451.1363286977
290,0.0
339,400.00000000000017
340,3183368.463918431
416,18744.036887998802
441,18744.036887998802
627,12.9467773005475
655,0.7521863701678108
11,2659450.853423707
2,4, 1, 4, 0,21, 0.00,60.00,Sunday
7,-4.5
8,3.25
204,16.0
205,2120879.4136279128
290,0.0
339,400.0000000000001
340,3107800.4194000335
416,18744.036887998802
441,18744.036887998802
627,13.017966097101803
655,0.7537661282018548
11,2690222.0801879396
2,4, 1, 4, 0,22, 0.00,60.00,Sunday
7,-4.075
8,2.75
204,16.0
205,2137443.762116897
290,0.0
339,400.00000000000017
340,3043700.5779020777
416,18744.036887998802
441,18744.036887998802
627,13.082085471006394
655,0.7531891454004302
11,2695406.9949344452
2,4, 1, 4, 0,23, 0.00,60.00,Sunday
7,-4.0
8,2.0
204,16.0
205,2159122.490906895
290,0.0
339,400.00000000000017
340,3032613.778534351
416,18744.036887998802
441,18744.036887998802
627,13.095885200007231
655,0.7523073224933675
11,2714672.8312044973
2,4, 1, 4, 0,24, 0.00,60.00,Sunday
7,-3.875
8,1.375
204,16.0
205,2183036.809063446
290,0.0
339,400.0000000000001
340,3013907.4125246
416,18744.036887998802
441,18744.036887998802
627,13.11139986580039
655,0.7532153783380784
11,2735861.824884841
2,5, 1, 5, 0, 1, 0.00,60.00,Monday
7,-4.55
8,3.5
204,16.0
205,2261905.2018613843
290,0.0
339,400.0000000000001
340,3116594.66904648
416,18744.036887998802
441,18744.036887998802
627,13.013276841497849
655,0.7529793722100505
11,2832291.824839046
2,5, 1, 5, 0, 2, 0.00,60.00,Monday
7,-5.0
8,3.75
204,16.0
205,2304735.7484574947
290,0.0
339,400.00000000000017
340,3184525.182746358
416,18744.036887998802
441,18744.036887998802
627,12.954363446490099
655,0.752512851245438
11,2885663.747718568
2,5, 1, 5, 0, 3, 0.00,60.00,Monday
7,-5.0
8,3.0
204,16.0
205,2320367.829453763
290,0.0
339,400.00000000000017
340,3183809.3708895817
416,18744.036887998802
441,18744.036887998802
627,12.955057296030574
655,0.7524841078297451
11,2901154.5637143753
2,5, 1, 5, 0, 4, 0.00,60.00,Monday
7,-5.625
8,3.625
204,16.0
205,2377283.555162658
290,0.0
339,400.0000000000002
340,3278582.8446092224
416,18744.036887998802
441,18744.036887998802
627,12.861311617817208
655,0.7524959406219661
11,2974769.294353067
2,5, 1, 5, 0, 5, 0.00,60.00,Monday
7,-6.0
8,3.375
204,16.0
205,2411844.888326443
290,0.0
339,400.00000000000006
340,3335435.0349678244
416,18744.036887998802
441,18744.036887998802
627,12.805065365126875
655,0.7524952166895138
11,3019342.1895117094
2,5, 1, 5, 0, 6, 0.00,60.00,Monday
7,-6.749999999999999
8,3.0
204,16.0
205,2449929.3640991035
290,0.0
339,400.00000000000017
340,3448782.3435853445
416,18744.036887998802
441,18744.036887998802
627,12.692570432961608
655,0.7517954548745238
11,3077474.1462962916
2,5, 1, 5, 0, 7, 0.00,60.00,Monday
7,-7.7
8,3.0
204,16.0
205,2497316.441210315
290,0.0
339,400.0000000000002
340,3592306.3045605384
416,18744.036887998802
441,18744.036887998802
627,12.550077102611525
655,0.752105388027229
11,3150251.458525737
2,5, 1, 5, 0, 8, 0.00,60.00,Monday
7,-8.625
8,2.375
204,20.75961624086825
205,12848423.157283332
290,0.0
339,400.0000000000001
340,4431268.1390579315
416,18744.036887998802
441,18744.036887998802
627,16.33535115683442
655,0.7644306548127369
11,13675125.762232972
2,5, 1, 5, 0, 9, 0.00,60.00,Monday
7,-9.125
8,2.0
204,20.999999999996152
205,12340707.623175126
290,0.0
339,399.99999999999994
340,4564048.1199989
416,18744.036887998802
441,18744.036887998802
627,16.58634709714968
655,0.7638250262949169
11,13165455.109021079
2,5, 1, 5, 0,10, 0.00,60.00,Monday
7,-9.7
8,2.0
204,21.0
205,7287932.76650062
290,0.0
339,559.1577910586091
340,4650594.359422043
416,18744.036887998802
441,18744.036887998802
627,16.500064001360144
655,0.7650626162318591
11,14907187.62506505
2,5, 1, 5, 0,11, 0.00,60.00,Monday
7,-10.0
8,2.0
204,21.0
205,6065270.695969607
290,0.0
339,755.5980463463452
340,4695307.955808308
416,18744.036887998802
441,18744.036887998802
627,16.454935720560282
655,0.7670860694456045
11,15223764.422182638
2,5, 1, 5, 0,12, 0.00,60.00,Monday
7,-9.8125
8,2.625
204,21.0
205,5809497.347730875
290,0.0
339,838.3363284562079
340,4666245.895226279
416,18744.036887998802
441,18744.036887998802
627,16.48295012597224
655,0.7651215336284972
11,14964005.803871142
2,5, 1, 5, 0,13, 0.00,60.00,Monday
7,-9.8875
8,2.375
204,21.0
205,5586376.467029321
290,0.0
339,874.489525898541
340,4677009.766884925
416,18744.036887998802
441,18744.036887998802
627,16.471608013533835
655,0.7669031418540844
11,14743771.53394068
2,5, 1, 5, 0,14, 0.00,60.00,Monday
7,-10.0
8,2.0
204,21.0
205,10820439.428842217
290,0.0
339,746.7487032590167
340,4693798.542872312
416,18744.036887998802
441,18744.036887998802
627,16.454694191036303
655,0.7686165896692743
11,11891305.772309242
2,5, 1, 5, 0,15, 0.00,60.00,Monday
7,-10.0
8,2.0
204,21.0
205,6229029.155722923
290,0.0
339,719.9802493336122
340,4693798.542872312
416,18744.036887998802
441,18744.036887998802
627,16.454711652666855
655,0.7686981065205334
11,13859652.731212698
2,5, 1, 5, 0,16, 0.00,60.00,Monday
7,-10.0
8,2.0
204,21.0
205,5174032.901578698
290,0.0
339,824.9763145218546
340,4693266.025861061
416,18744.036887998802
441,18744.036887998802
627,16.45463970219084
655,0.7692597579077836
11,14335343.778528323
2,5, 1, 5, 0,17, 0.00,60.00,Monday
7,-11.25
8,2.0
204,21.0
205,5066311.222184803
290,0.0
339,867.7745054000285
340,4881579.357185726
416,18744.036887998802
441,18744.036887998802
627,16.26707858547252
655,0.7698002376021678
11,14261867.298749864
2,5, 1, 5, 0,18, 0.00,60.00,Monday
7,-11.437500000000002
8,2.0
204,20.999999999999996