Program Version,EnergyPlus, Version 25.2.0-cf7368216c, YMD=2026.04.09 21:15
1,5,Environment Title[],Latitude[deg],Longitude[deg],Time Zone[],Elevation[m]
2,8,Day of Simulation[],Month[],Day of Month[],DST Indicator[1=yes 0=no],Hour[],StartMinute[],EndMinute[],DayType
3,5,Cumulative Day of Simulation[],Month[],Day of Month[],DST Indicator[1=yes 0=no],DayType  ! When Daily Report Variables Requested
4,2,Cumulative Days of Simulation[],Month[]  ! When Monthly Report Variables Requested
5,1,Cumulative Days of Simulation[] ! When Run Period Report Variables Requested
6,1,Calendar Year of Simulation[] ! When Annual Report Variables Requested
7,1,Environment,Site Outdoor Air Drybulb Temperature [C] !Hourly
8,1,Environment,Site Wind Speed [m/s] !Hourly
204,1,MAINZONE,Zone Mean Air Temperature [C] !Hourly
205,1,MAINZONE,Zone Air System Sensible Heating Energy [J] !Hourly
290,1,MAINZONE,Zone Air System Sensible Cooling Energy [J] !Hourly
339,1,MAINZONE,Zone Air CO2 Concentration [ppm] !Hourly
340,1,LAB_HX,Heat Exchanger Sensible Heating Energy [J] !Hourly
416,1,SUPPLY_FAN,Fan Electricity Energy [J] !Hourly
441,1,EXHAUST_FAN,Fan Electricity Energy [J] !Hourly
687,1,ERV_SA_OUTLET,System Node Temperature [C] !Hourly
715,1,MAINZONE,Zone Mechanical Ventilation Air Changes per Hour [ach] !Hourly
11,1,Electricity:Facility [J] !Hourly
End of Data Dictionary
1,ANNUAL,  50.39,  30.54,   2.00, 178.60
2,1, 1, 1, 0, 1, 0.00,60.00,Thursday
7,-7.05
8,2.375
204,21.0
205,6534528.019675283
290,0.0
339,408.17882978359285
340,4251957.6334263645
416,18744.036887998802
441,18744.036887998802
687,16.895723064448113
715,0.7790132794551072
11,37488.073775997604
2,1, 1, 1, 0, 2, 0.00,60.00,Thursday
7,-9.625
8,1.375
204,21.0
205,6573423.474543462
290,0.0
339,404.40515057185837
340,4639611.421404193
416,18744.036887998802
441,18744.036887998802
687,16.509482188406064
715,0.7797459580591308
11,37488.073775997604
2,1, 1, 1, 0, 3, 0.00,60.00,Thursday
7,-9.0625
8,1.625
204,21.0
205,6583554.794606453
290,0.0
339,402.37730513707027
340,4554351.185615765
416,18744.036887998802
441,18744.036887998802
687,16.5938581125762
715,0.7748087275998674
11,37488.073775997604
2,1, 1, 1, 0, 4, 0.00,60.00,Thursday
7,-10.0625
8,0.75
204,20.999999999999996
205,6595293.519771205
290,0.0
339,401.28554542484073
340,4704346.919316767
416,18744.036887998802
441,18744.036887998802
687,16.443863695800065
715,0.7768192658163516
11,37488.073775997604
2,1, 1, 1, 0, 5, 0.00,60.00,Thursday
7,-11.0
8,0.0
204,21.0
205,6608874.1278020665
290,0.0
339,400.6942185179936
340,4845921.991566445
416,18744.036887998802
441,18744.036887998802
687,16.303241011561024
715,0.7798173693043365
11,37488.073775997604
2,1, 1, 1, 0, 6, 0.00,60.00,Thursday
7,-9.625
8,1.25
204,21.0
205,6613532.090511158
290,0.0
339,400.37501473018244
340,4638848.629312083
416,18744.036887998802
441,18744.036887998802
687,16.509486819820694
715,0.7756930231037937
11,37488.073775997604
2,1, 1, 1, 0, 7, 0.00,60.00,Thursday
7,-9.55
8,1.375
204,21.0
205,6626754.869690126
290,0.0
339,400.2027981486351
340,4627223.107356288
416,18744.036887998802
441,18744.036887998802
687,16.52073737398849
715,0.7773033463075453
11,37488.073775997604
2,1, 1, 1, 0, 8, 0.00,60.00,Thursday
7,-10.625
8,1.0
204,21.0
205,6652837.789239563
290,0.0
339,400.10952980511803
340,4788933.600604618
416,18744.036887998802
441,18744.036887998802
687,16.35949092358656
715,0.7797990789625986
11,37488.073775997604
2,1, 1, 1, 0, 9, 0.00,60.00,Thursday
7,-8.75
8,1.625
204,21.0
205,6629499.853721271
290,0.0
339,400.0591843507456
340,4507110.238124102
416,18744.036887998802
441,18744.036887998802
687,16.640733520134845
715,0.7766374038751934
11,37488.073775997604
2,1, 1, 1, 0,10, 0.00,60.00,Thursday
7,-9.025
8,1.375
204,21.0
205,1183256.3280660673
290,117554.90223694396
339,552.7649736425467
340,4548401.181030699
416,18744.036887998802
441,18744.036887998802
687,16.59947574573918
715,0.7779278339587918
11,6816288.073775997
2,1, 1, 1, 0,11, 0.00,60.00,Thursday
7,-8.125
8,1.625
204,21.088975931514852
205,0.0
290,755981.5225062857
339,755.8245075116359
340,4418529.045632504
416,18744.036887998802
441,18744.036887998802
687,16.765599376001283
715,0.7795401625172655
11,8346288.073775997
2,1, 1, 1, 0,12, 0.00,60.00,Thursday
7,-5.000000000000001
8,2.625
204,21.40890217507603
205,0.0
290,714006.8485683547
339,847.1263004363211
340,3991327.4339412213
416,18744.036887998802
441,18744.036887998802
687,17.48553757592281
715,0.7775092332931752
11,8346288.073775997
2,1, 1, 1, 0,13, 0.00,60.00,Thursday
7,-3.925
8,3.625
204,21.658369854866745
205,0.0
290,687683.1852299302
339,888.2791354752387
340,3870170.031152753
416,18744.036887998802
441,18744.036887998802
687,17.877833049516454
715,0.7787036527235095
11,8346288.073775997
2,1, 1, 1, 0,14, 0.00,60.00,Thursday
7,-2.75
8,4.0
204,21.00188599319796
205,4026232.341101676
290,5409.698473050389
339,770.9054781320691
340,3610396.796042811
416,18744.036887998802
441,18744.036887998802
687,17.59456446510164
715,0.7769234894895405
11,256368.07377599765
2,1, 1, 1, 0,15, 0.00,60.00,Thursday
7,-0.8750000000000001
8,4.625
204,21.076281516883967
205,737165.7713561717
290,438402.2128479121
339,747.3561494677031
340,3323785.0055360263
416,18744.036887998802
441,18744.036887998802
687,17.84697403476734
715,0.7778003034824034
11,6816288.073775997
2,1, 1, 1, 0,16, 0.00,60.00,Thursday
7,-0.075
8,4.375
204,21.37120120510793
205,0.0
290,577243.2416607391
339,845.1065289933587
340,3245595.4772266634
416,18744.036887998802
441,18744.036887998802
687,18.19770316834361
715,0.7786074741468744
11,8346288.073775997
2,1, 1, 1, 0,17, 0.00,60.00,Thursday
7,-1.25
8,4.625
204,21.596434266265273
205,0.0
290,611897.3331821155
339,886.3341110268503
340,3458227.0230255267
416,18744.036887998802
441,18744.036887998802
687,18.23143787743291
715,0.7795288112800701
11,8346288.073775997
2,1, 1, 1, 0,18, 0.00,60.00,Thursday
7,-2.0625
8,3.75
204,21.792933204471392
205,0.0
290,639660.2984082015
339,904.7737853117467
340,3609540.641424125
416,18744.036887998802
441,18744.036887998802
687,18.27412921787689
715,0.7792353152251725
11,8346288.073775997
2,1, 1, 1, 0,19, 0.00,60.00,Thursday
7,-3.9125
8,3.0
204,21.00463443745531
205,4157824.2499381537
290,42140.036917855934
339,766.2276772832126
340,3789112.6824374744
416,18744.036887998802
441,18744.036887998802
687,17.432200679397265
715,0.7763310409692011
11,37488.073775997604
2,1, 1, 1, 0,20, 0.00,60.00,Thursday
7,-5.625
8,2.375
204,21.00000000427955
205,5424330.7316530235
290,0.0
339,586.9593068568984
340,4035858.1474202103
416,18744.036887998802
441,18744.036887998802
687,17.10960467040271
715,0.7786044174826537
11,37488.073775997604
2,1, 1, 1, 0,21, 0.00,60.00,Thursday
7,-5.0
8,2.625
204,21.000000000000593
205,6040710.80144838
290,0.0
339,499.2123192896618
340,3942075.54872799
416,18744.036887998802
441,18744.036887998802
687,17.203289939182305
715,0.7780977408429246
11,37488.073775997604
2,1, 1, 1, 0,22, 0.00,60.00,Thursday
7,-4.15
8,3.0
204,21.0
205,6310778.635071883
290,0.0
339,452.97770652727763
340,3814155.086511103
416,18744.036887998802
441,18744.036887998802
687,17.33074908746411
715,0.7786419974458733
11,37488.073775997604
2,1, 1, 1, 0,23, 0.00,60.00,Thursday
7,-4.0
8,2.375
204,21.0
205,6423350.5362881655
290,0.0
339,428.36761606730016
340,3791462.3541159793
416,18744.036887998802
441,18744.036887998802
687,17.353229879923664
715,0.7792891479850439
11,37488.073775997604
2,1, 1, 1, 0,24, 0.00,60.00,Thursday
7,-3.875
8,2.625
204,21.0
205,6474946.307905404
290,0.0
339,415.21694390617245
340,3773130.2962911986
416,18744.036887998802
441,18744.036887998802
687,17.37196786498967
715,0.7784035255910742
11,37488.073775997604
2,2, 1, 2, 0, 1, 0.00,60.00,Friday
7,-3.925
8,3.625
204,21.0
205,6505758.606812361
290,0.0
339,408.1662856378462
340,3781309.942490627
416,18744.036887998802
441,18744.036887998802
687,17.364460659260974
715,0.7788129476276169
11,37488.073775997604
2,2, 1, 2, 0, 2, 0.00,60.00,Friday
7,-4.0
8,3.375
204,21.0
205,6513596.935943522
290,0.0
339,404.37959728914757
340,3792815.3840834526
416,18744.036887998802
441,18744.036887998802
687,17.353208049620264
715,0.7793958740042459
11,37488.073775997604
2,2, 1, 2, 0, 3, 0.00,60.00,Friday
7,-4.0
8,3.625
204,21.0
205,6521458.0059688995
290,0.0
339,402.3496235462161
340,3792815.3840834526
416,18744.036887998802
441,18744.036887998802
687,17.353206608933775
715,0.7794047511615841
11,37488.073775997604
2,2, 1, 2, 0, 4, 0.00,60.00,Friday
7,-4.0
8,3.375
204,21.0
205,6523704.69410112
290,0.0
339,401.26028288380917
340,3793782.3911459637
416,18744.036887998802
441,18744.036887998802
687,17.353202136317293
715,0.779412216681252
11,37488.073775997604
2,2, 1, 2, 0, 5, 0.00,60.00,Friday
7,-4.0
8,4.875
204,21.0
205,6544281.497563622
290,0.0
339,400.67594543410934
340,3792549.6947058383
416,18744.036887998802
441,18744.036887998802
687,17.353205700291397
715,0.7794132937498708
11,37488.073775997604
2,2, 1, 2, 0, 6, 0.00,60.00,Friday
7,-4.375
8,5.375
204,21.0
205,6559104.461582191
290,0.0
339,400.362052560361
340,3846878.3049064083
416,18744.036887998802
441,18744.036887998802
687,17.29697117725139
715,0.7772579412878137
11,37488.073775997604
2,2, 1, 2, 0, 7, 0.00,60.00,Friday
7,-6.1
8,5.0
204,21.0
205,6577302.564176549
290,0.0
339,400.19433218538956
340,4105987.9107054165
416,18744.036887998802
441,18744.036887998802
687,17.038235211840345
715,0.7781869172726605
11,37488.073775997604
2,2, 1, 2, 0, 8, 0.00,60.00,Friday
7,-7.625
8,3.75
204,21.0
205,6583794.25985561
290,0.0
339,400.10438810401286
340,4336240.554811282
416,18744.036887998802
441,18744.036887998802
687,16.80949095158042
715,0.7795516330877638
11,37488.073775997604
2,2, 1, 2, 0, 9, 0.00,60.00,Friday
7,-7.562500000000001
8,4.25
204,21.0
205,6570037.3374282885
290,0.0
339,400.05617857781425
340,4327520.807975197
416,18744.036887998802
441,18744.036887998802
687,16.818862373774078
715,0.7763270754975173
11,37488.073775997604
2,2, 1, 2, 0,10, 0.00,60.00,Friday
7,-8.3625
8,4.375
204,21.0
205,1176258.0721179286
290,118724.1184781027
339,552.7147555574828
340,4448423.618617736
416,18744.036887998802
441,18744.036887998802
687,16.69885668853752
715,0.7777049981334854
11,6816288.073775997
2,2, 1, 2, 0,11, 0.00,60.00,Friday
7,-9.0
8,4.625
204,21.07541684068216
205,0.0
290,778578.1163983223
339,755.238946473113
340,4548498.4106859155
416,18744.036887998802
441,18744.036887998802
687,16.629110725621242
715,0.7794635959623557
11,8346288.073775997
2,2, 1, 2, 0,12, 0.00,60.00,Friday
7,-8.0
8,3.75
204,21.382667105147497
205,0.0
290,795376.9353514058
339,846.2667670862088
340,4438661.326475517
416,18744.036887998802
441,18744.036887998802
687,17.01117192067006
715,0.7756563477143139
11,8346288.073775997
2,2, 1, 2, 0,13, 0.00,60.00,Friday
7,-7.775
8,3.625
204,21.64955759736651
205,0.0
290,792912.4302762145
339,888.298447444446
340,4447773.539103189
416,18744.036887998802
441,18744.036887998802
687,17.289186171008737
715,0.777623189508927
11,8346288.073775997
2,2, 1, 2, 0,14, 0.00,60.00,Friday
7,-7.375
8,3.375
204,21.00188752642268
205,3901550.5187456766
290,14124.74907550145
339,771.0051682783345
340,4306840.512166158
416,18744.036887998802
441,18744.036887998802
687,16.900703076958884
715,0.7770332100205388
11,256368.07377599765
2,2, 1, 2, 0,15, 0.00,60.00,Friday
7,-6.4375
8,3.0
204,21.080770633615565
205,697412.3396186978
290,554784.2403127194
339,747.9609972881415
340,4159871.375183385
416,18744.036887998802
441,18744.036887998802
687,17.01499119187148
715,0.7747668017422743
11,6816288.073775997
2,2, 1, 2, 0,16, 0.00,60.00,Friday
7,-6.6625
8,2.375
204,21.36901714627385
205,0.0
290,755906.3269265178
339,846.8793303103495
340,4236128.694294736
416,18744.036887998802
441,18744.036887998802
687,17.211386329039428
715,0.7767677385318498
11,8346288.073775997
2,2, 1, 2, 0,17, 0.00,60.00,Friday
7,-8.25
8,2.0
204,21.582084326977785
205,0.0
290,801710.335877921
339,888.0031054380947
340,4510230.887466678
416,18744.036887998802
441,18744.036887998802
687,17.170529075024888
715,0.7795159272865324
11,8346288.073775997
2,2, 1, 2, 0,18, 0.00,60.00,Friday
7,-8.375
8,2.0
204,21.77621019027528
205,0.0
290,810706.0927051473
339,906.8884447035836
340,4557063.12422938
416,18744.036887998802
441,18744.036887998802
687,17.31339076671266
715,0.7757808695712461
11,8346288.073775997
2,2, 1, 2, 0,19, 0.00,60.00,Friday
7,-9.25
8,2.0
204,21.003296170685612
205,4048140.4233375294
290,54978.722643544985
339,768.4534874061222
340,4590925.938478296
416,18744.036887998802
441,18744.036887998802
687,16.629320688791882
715,0.7743094683789967
11,37488.073775997604
2,2, 1, 2, 0,20, 0.00,60.00,Friday
7,-10.0
8,2.0
204,21.00000000311821
205,5302102.187671111
290,0.0
339,588.2839731978311
340,4693479.028731282
416,18744.036887998802
441,18744.036887998802
687,16.45340975530067
715,0.7786472795510021
11,37488.073775997604
2,2, 1, 2, 0,21, 0.00,60.00,Friday
7,-9.3125
8,2.0
204,21.000000000000433
205,5938656.763136022
290,0.0
339,499.9731658057413
340,4590397.90348524
416,18744.036887998802
441,18744.036887998802
687,16.55645587048746
715,0.7750358005263587
11,37488.073775997604
2,2, 1, 2, 0,22, 0.00,60.00,Friday
7,-9.5875
8,1.375
204,21.0
205,6242465.90604656
290,0.0
339,453.5601896633244
340,4631757.413747351
416,18744.036887998802
441,18744.036887998802
687,16.515163083548234
715,0.7769702163918171
11,37488.073775997604
2,2, 1, 2, 0,23, 0.00,60.00,Friday
7,-10.0
8,1.0
204,21.0
205,6395015.167971981
290,0.0
339,428.76320219822355
340,4693798.542872312
416,18744.036887998802
441,18744.036887998802
687,16.45326746252288
715,0.7795938759412002
11,37488.073775997604
2,2, 1, 2, 0,24, 0.00,60.00,Friday
7,-9.25
8,1.0
204,21.0
205,6470177.998610372
290,0.0
339,415.48183832358075
340,4580814.614216327
416,18744.036887998802
441,18744.036887998802
687,16.56575492874243
715,0.7758558448403372
11,37488.073775997604
2,3, 1, 3, 0, 1, 0.00,60.00,Saturday
7,-9.55
8,1.0
204,21.0
205,6524185.578101782
290,0.0
339,408.3539500290765
340,4626008.373670131
416,18744.036887998802
441,18744.036887998802
687,16.520750327795724
715,0.7774104496751295
11,37488.073775997604
2,3, 1, 3, 0, 2, 0.00,60.00,Saturday
7,-10.0
8,1.0
204,21.0
205,6569085.313125142
290,0.0
339,404.50415691365197
340,4693798.542872312
416,18744.036887998802
441,18744.036887998802
687,16.4532488129845
715,0.7797151142183582
11,37488.073775997604
2,3, 1, 3, 0, 3, 0.00,60.00,Saturday
7,-9.6875
8,1.625
204,21.0
205,6609540.93945198
290,0.0
339,402.4308043656122
340,4646463.812271388
416,18744.036887998802
441,18744.036887998802
687,16.500122353867148
715,0.7763267759118414
11,37488.073775997604
2,3, 1, 3, 0, 4, 0.00,60.00,Saturday
7,-10.4375
8,2.625
204,20.999999999999996
205,6662939.1131116655
290,0.0
339,401.31427134415446
340,4759439.98220568
416,18744.036887998802
441,18744.036887998802
687,16.387623726261495
715,0.7777250098612286
11,37488.073775997604
2,3, 1, 3, 0, 5, 0.00,60.00,Saturday
7,-11.0
8,2.375
204,20.999999999999996
205,6704940.334538661
290,0.0
339,400.7099982210668
340,4844262.393925939
416,18744.036887998802
441,18744.036887998802
687,16.30324960961877
715,0.7797930595284011
11,37488.073775997604
2,3, 1, 3, 0, 6, 0.00,60.00,Saturday
7,-10.3125
8,2.625
204,21.0
205,6737415.733456816
290,0.0
339,400.3839984077729
340,4740773.819995559
416,18744.036887998802
441,18744.036887998802
687,16.406371573938003
715,0.7765741464531111
11,37488.073775997604
2,3, 1, 3, 0, 7, 0.00,60.00,Saturday
7,-10.5875
8,2.375
204,20.999999999999996
205,6772823.4251176715
290,0.0
339,400.2079986284533
340,4782168.854848507
416,18744.036887998802
441,18744.036887998802
687,16.365121347822956
715,0.7778709224080832
11,37488.073775997604
2,3, 1, 3, 0, 8, 0.00,60.00,Saturday
7,-11.625
8,2.0
204,21.0
205,6817596.112287855
290,0.0
339,400.11264242671604
340,4938873.250534459
416,18744.036887998802
441,18744.036887998802
687,16.209496192696353
715,0.7798652190144082
11,37488.073775997604
2,3, 1, 3, 0, 9, 0.00,60.00,Saturday
7,-11.624999999999998
8,2.0
204,21.0
205,6832270.378453551
290,0.0
339,400.06108668786544
340,4939171.59045407
416,18744.036887998802
441,18744.036887998802
687,16.209493660679197
715,0.7766452543650186
11,37488.073775997604
2,3, 1, 3, 0,10, 0.00,60.00,Saturday
7,-11.15
8,3.25
204,21.0
205,6707260.146717049
290,0.0
339,400.03312323361996
340,4867819.8947461005
416,18744.036887998802
441,18744.036887998802
687,16.280742051589485
715,0.7778937376040406
11,37488.073775997604
2,3, 1, 3, 0,11, 0.00,60.00,Saturday
7,-11.0
8,5.25
204,21.0
205,6661569.235774413
290,0.0
339,400.0178586166508
340,4845335.144191265
416,18744.036887998802
441,18744.036887998802
687,16.303245167549356
715,0.7797900654791217
11,37488.073775997604
2,3, 1, 3, 0,12, 0.00,60.00,Saturday
7,-10.5625
8,4.125
204,21.0
205,6727610.844477518
290,0.0
339,400.00962224237503
340,4779654.759566413
416,18744.036887998802
441,18744.036887998802
687,16.368871686311536
715,0.7763739086841952
11,37488.073775997604
2,3, 1, 3, 0,13, 0.00,60.00,Saturday
7,-9.4875
8,3.625
204,20.999999999999996
205,6813192.396822793
290,0.0
339,400.00520959948943
340,4617294.554855354
416,18744.036887998802
441,18744.036887998802
687,16.530116706486083
715,0.7776805539637555
11,37488.073775997604
2,3, 1, 3, 0,14, 0.00,60.00,Saturday
7,-8.375
8,3.375
204,21.0
205,6863333.909616757
290,0.0
339,400.0028175188026
340,4449484.029265121
416,18744.036887998802
441,18744.036887998802
687,16.69698654531979
715,0.7796509385788161
11,37488.073775997604
2,3, 1, 3, 0,15, 0.00,60.00,Saturday
7,-7.375
8,3.625
204,21.0
205,6911620.585227645
290,0.0
339,400.0015244068741
340,4299066.408294108
416,18744.036887998802
441,18744.036887998802
687,16.84697969520225
715,0.7796088131837582
11,37488.073775997604
2,3, 1, 3, 0,16, 0.00,60.00,Saturday
7,-6.375
8,4.625
204,21.0
205,6969702.912074935
290,0.0
339,400.00082454089056
340,4147899.773610518
416,18744.036887998802
441,18744.036887998802
687,16.996976471767944
715,0.7795568338568369
11,37488.073775997604
2,3, 1, 3, 0,17, 0.00,60.00,Saturday
7,-6.625
8,3.75
204,21.0
205,7011889.033903997
290,0.0
339,400.00044611548844
340,4185808.301929886
416,18744.036887998802
441,18744.036887998802
687,16.95947571373364
715,0.7795810549491402
11,37488.073775997604
2,3, 1, 3, 0,18, 0.00,60.00,Saturday
7,-6.6875
8,3.625
204,21.0
205,7031005.649429051
290,0.0
339,400.00024193234674
340,4196369.6484913295
416,18744.036887998802
441,18744.036887998802
687,16.950093744331685
715,0.7776182745783933
11,37488.073775997604
2,3, 1, 3, 0,19, 0.00,60.00,Saturday
7,-6.8125
8,4.0
204,21.0
205,7038133.691879946
290,0.0
339,400.00013127209394
340,4214885.094085132
416,18744.036887998802
441,18744.036887998802
687,16.931343169481888
715,0.7784326197959062
11,37488.073775997604
2,3, 1, 3, 0,20, 0.00,60.00,Saturday
7,-6.375
8,4.625
204,21.0
205,7037657.858049031
290,0.0
339,400.0000711303558
340,4147899.7736105192
416,18744.036887998802
441,18744.036887998802
687,16.996971623551442
715,0.7795889939902539
11,37488.073775997604
2,3, 1, 3, 0,21, 0.00,60.00,Saturday
7,-6.0625
8,5.625
204,21.0
205,7041817.756038844
290,0.0
339,400.00003849012666
340,4101061.423863126
416,18744.036887998802
441,18744.036887998802
687,17.043847088890374
715,0.7779427686402798
11,37488.073775997604
2,3, 1, 3, 0,22, 0.00,60.00,Saturday
7,-6.0375
8,6.0
204,21.0
205,7040946.708231613
290,0.0
339,400.00002081701234
340,4097048.610440079
416,18744.036887998802
441,18744.036887998802
687,17.047599769096948
715,0.7785702883220457
11,37488.073775997604
2,3, 1, 3, 0,23, 0.00,60.00,Saturday
7,-6.625
8,6.0
204,21.000000000000004
205,7043895.053527907
290,0.0
339,400.000011247724
340,4185808.3019298855
416,18744.036887998802
441,18744.036887998802
687,16.959477360674555
715,0.7795624320476785
11,37488.073775997604
2,3, 1, 3, 0,24, 0.00,60.00,Saturday
7,-7.0625
8,5.375
204,21.0
205,7038483.056836437
290,0.0
339,400.0000060821621
340,4252350.974984748
416,18744.036887998802
441,18744.036887998802
687,16.89385140467016
715,0.778181828573726
11,37488.073775997604
2,4, 1, 4, 0, 1, 0.00,60.00,Sunday
7,-7.6625
8,4.375
204,21.0
205,7030370.396730172
290,0.0
339,400.0000032954134
340,4342479.6525640935
416,18744.036887998802
441,18744.036887998802
687,16.803852409561202
715,0.7787977109058035
11,37488.073775997604
2,4, 1, 4, 0, 2, 0.00,60.00,Sunday
7,-8.0
8,4.0
204,21.0
205,7030131.336771679
290,0.0
339,400.00000178640204
340,4393075.555222679
416,18744.036887998802
441,18744.036887998802
687,16.753228300862265
715,0.779672906560154
11,37488.073775997604
2,4, 1, 4, 0, 3, 0.00,60.00,Sunday
7,-7.75
8,4.625
204,21.0
205,7040198.130707225
290,0.0
339,400.0000009683436
340,4355457.148422682
416,18744.036887998802
441,18744.036887998802
687,16.790727229874886
715,0.7787683570830025
11,37488.073775997604
2,4, 1, 4, 0, 4, 0.00,60.00,Sunday
7,-7.225
8,3.75
204,21.0
205,7032156.032007307
290,0.0
339,400.0000005248893
340,4275770.914428762
416,18744.036887998802
441,18744.036887998802
687,16.86947812579045
715,0.7790898352050891
11,37488.073775997604
2,4, 1, 4, 0, 5, 0.00,60.00,Sunday
7,-7.0
8,4.25
204,21.0
205,7046050.081755603
290,0.0
339,400.00000028458663
340,4240866.728891116
416,18744.036887998802
441,18744.036887998802
687,16.903230669694693
715,0.7796079397195737
11,37488.073775997604
2,4, 1, 4, 0, 6, 0.00,60.00,Sunday
7,-6.812499999999999
8,4.375
204,21.0
205,7058245.048970836
290,0.0
339,400.0000001541599
340,4212905.286985949
416,18744.036887998802
441,18744.036887998802
687,16.931355880951827
715,0.7797985108361333
11,37488.073775997604
2,4, 1, 4, 0, 7, 0.00,60.00,Sunday
7,-6.8875
8,4.0
204,21.0
205,7066674.55803317
290,0.0
339,400.0000000835551
340,4225196.093766485
416,18744.036887998802
441,18744.036887998802
687,16.920101268802366
715,0.779732168481005
11,37488.073775997604
2,4, 1, 4, 0, 8, 0.00,60.00,Sunday
7,-7.0
8,4.625
204,21.0
205,7090232.461068137
290,0.0
339,400.00000004530244
340,4242390.739478929
416,18744.036887998802
441,18744.036887998802
687,16.903223945187186
715,0.7796213251466069
11,37488.073775997604
2,4, 1, 4, 0, 9, 0.00,60.00,Sunday
7,-6.6875
8,5.0
204,21.0
205,7106066.387084488
290,0.0
339,400.0000000245461
340,4195227.8553924
416,18744.036887998802
441,18744.036887998802
687,16.95009836506205
715,0.7804422123500863
11,37488.073775997604
2,4, 1, 4, 0,10, 0.00,60.00,Sunday
7,-6.1875
8,6.25
204,21.0
205,7107761.199957071
290,0.0
339,400.00000001328294
340,4118852.830661732
416,18744.036887998802
441,18744.036887998802
687,17.02510151371662
715,0.780059900176199
11,37488.073775997604
2,4, 1, 4, 0,11, 0.00,60.00,Sunday
7,-6.625
8,5.75
204,21.0
205,7074436.82903507
290,0.0
339,400.0000000071776
340,4186161.589957938
416,18744.036887998802
441,18744.036887998802
687,16.959476388390073
715,0.7795628584928008
11,37488.073775997604
2,4, 1, 4, 0,12, 0.00,60.00,Sunday
7,-6.562500000000001
8,3.75
204,21.0
205,7032312.450947877
290,0.0
339,400.00000000388536
340,4177862.7538081617
416,18744.036887998802
441,18744.036887998802
687,16.96884381875631
715,0.7807738722642775
11,37488.073775997604
2,4, 1, 4, 0,13, 0.00,60.00,Sunday
7,-6.1125
8,4.25
204,21.0
205,7036664.59829802
290,0.0
339,400.0000000021039
340,4109517.4628656576
416,18744.036887998802
441,18744.036887998802
687,17.036340374546967
715,0.7802949470152514
11,37488.073775997604
2,4, 1, 4, 0,14, 0.00,60.00,Sunday
7,-6.0
8,4.375
204,21.0
205,7046271.584779866
290,0.0
339,400.00000000113914
340,4092257.9682772593
416,18744.036887998802
441,18744.036887998802
687,17.053216556934302
715,0.779574368723756
11,37488.073775997604
2,4, 1, 4, 0,15, 0.00,60.00,Sunday
7,-5.375
8,4.625
204,20.999999999999996
205,7060299.495069524
290,0.0
339,400.00000000061726
340,3997575.023625033
416,18744.036887998802
441,18744.036887998802
687,17.146966270041407
715,0.7795309469842577
11,37488.073775997604
2,4, 1, 4, 0,16, 0.00,60.00,Sunday
7,-5.0
8,4.375
204,21.0
205,7080850.869721464
290,0.0
339,400.00000000033435
340,3941444.2289377535
416,18744.036887998802
441,18744.036887998802
687,17.203213722604332
715,0.7795064871284749
11,37488.073775997604
2,4, 1, 4, 0,17, 0.00,60.00,Sunday
7,-5.0
8,3.375
204,21.0
205,7097164.941582251
290,0.0
339,400.00000000018144
340,3942666.4376610583
416,18744.036887998802
441,18744.036887998802
687,17.203206233472585
715,0.7795331833360271
11,37488.073775997604
2,4, 1, 4, 0,18, 0.00,60.00,Sunday
7,-5.125
8,3.0
204,21.0
205,7097518.694351356
290,0.0
339,400.0000000000984
340,3962209.2531291116
416,18744.036887998802
441,18744.036887998802
687,17.184449941623697
715,0.7814266937689799
11,37488.073775997604
2,4, 1, 4, 0,19, 0.00,60.00,Sunday
7,-5.075
8,2.375
204,21.0
205,7080799.947809638
290,0.0
339,400.0000000000535
340,3954586.0433868007
416,18744.036887998802
441,18744.036887998802
687,17.19194790341216
715,0.7806936246181327
11,37488.073775997604
2,4, 1, 4, 0,20, 0.00,60.00,Sunday
7,-5.0
8,2.0
204,21.0
205,7057007.486796575
290,0.0
339,400.00000000002916
340,3943150.8595816637
416,18744.036887998802
441,18744.036887998802
687,17.20319733949525
715,0.779579683393461
11,37488.073775997604
2,4, 1, 4, 0,21, 0.00,60.00,Sunday
7,-4.5
8,3.25
204,21.000000000000007
205,7039130.451944932
290,0.0
339,400.000000000016
340,3868492.033904695
416,18744.036887998802
441,18744.036887998802
687,17.278192612121156
715,0.7811634209197963
11,37488.073775997604
2,4, 1, 4, 0,22, 0.00,60.00,Sunday
7,-4.075
8,2.75
204,21.0
205,7009703.466944069
290,0.0
339,400.00000000000875
340,3804399.7206749246
416,18744.036887998802
441,18744.036887998802
687,17.34194074289252
715,0.7804937915446395
11,37488.073775997604
2,4, 1, 4, 0,23, 0.00,60.00,Sunday
7,-4.0
8,2.0
204,21.0
205,6985775.011817748
290,0.0
339,400.00000000000495
340,3792815.3840834545
416,18744.036887998802
441,18744.036887998802
687,17.353191110954654
715,0.7795237007669303
11,37488.073775997604
2,4, 1, 4, 0,24, 0.00,60.00,Sunday
7,-3.875
8,1.375
204,21.0
205,6967221.528191829
290,0.0
339,400.0000000000028
340,3774895.0435733823
416,18744.036887998802
441,18744.036887998802
687,17.37193645443254
715,0.7804117577295503
11,37488.073775997604
2,5, 1, 5, 0, 1, 0.00,60.00,Monday
7,-4.55
8,3.5
204,21.0
205,6974948.500203993
290,0.0
339,400.0000000000016
340,3876948.9854698023
416,18744.036887998802
441,18744.036887998802
687,17.27068654211146
715,0.7801029387309962
11,37488.073775997604
2,5, 1, 5, 0, 2, 0.00,60.00,Monday
7,-5.0
8,3.75
204,20.999999999999996
205,6969416.205869423
290,0.0
339,400.000000000001
340,3942897.2188257696
416,18744.036887998802
441,18744.036887998802
687,17.20319894923907
715,0.779565781543407
11,37488.073775997604
2,5, 1, 5, 0, 3, 0.00,60.00,Monday
7,-5.0
8,3.0
204,21.0
205,6951916.592678457
290,0.0
339,400.00000000000057
340,3941859.2211013865
416,18744.036887998802
441,18744.036887998802
687,17.203206743458356
715,0.7795403852161047
11,37488.073775997604
2,5, 1, 5, 0, 4, 0.00,60.00,Monday
7,-5.625
8,3.625
204,21.0
205,6953804.341828104
290,0.0
339,400.0000000000003
340,4036636.6789285513
416,18744.036887998802
441,18744.036887998802
687,17.10945853193065
715,0.7795724831802746
11,37488.073775997604
2,5, 1, 5, 0, 5, 0.00,60.00,Monday
7,-6.0
8,3.375
204,21.0
205,6948779.106307285
290,0.0
339,400.0000000000002
340,4093488.452005967
416,18744.036887998802
441,18744.036887998802
687,17.05320953037608
715,0.779593701562745
11,37488.073775997604
2,5, 1, 5, 0, 6, 0.00,60.00,Monday
7,-6.749999999999999
8,3.0
204,21.0
205,6945577.5743231615
290,0.0
339,400.00000000000017
340,4206757.009948602
416,18744.036887998802
441,18744.036887998802
687,16.940710937154837
715,0.7788975344601589
11,37488.073775997604
2,5, 1, 5, 0, 7, 0.00,60.00,Monday
7,-7.7
8,3.0
204,21.0
205,6946284.901167477
290,0.0
339,400.00000000000017
340,4350177.069638684
416,18744.036887998802
441,18744.036887998802
687,16.79821321991882
715,0.7792527109430651
11,37488.073775997604
2,5, 1, 5, 0, 8, 0.00,60.00,Monday
7,-8.625
8,2.375
204,21.0
205,6943990.109418378
290,0.0
339,400.00000000000017
340,4489391.213368569
416,18744.036887998802
441,18744.036887998802
687,16.659467057979903
715,0.7797591703127333
11,37488.073775997604
2,5, 1, 5, 0, 9, 0.00,60.00,Monday
7,-9.125
8,2.0
204,21.0
205,6939319.397429837
290,0.0
339,400.0000000000003
340,4564048.120011462
416,18744.036887998802
441,18744.036887998802
687,16.58447150309323
715,0.7780361021875752
11,37488.073775997604
2,5, 1, 5, 0,10, 0.00,60.00,Monday
7,-9.7
8,2.0
204,21.0
205,1528417.5373626975
290,0.0
339,551.1002544959986
340,4650594.359422042
416,18744.036887998802
441,18744.036887998802
687,16.498214787807097
715,0.7788464306759235
11,6816288.073775997
2,5, 1, 5, 0,11, 0.00,60.00,Monday
7,-10.0
8,2.0
204,21.0
205,0.0
290,455893.93325620634
339,752.4653868239492
340,4695307.955808308
416,18744.036887998802
441,18744.036887998802
687,16.453244803170588
715,0.7796018034887481
11,8346288.073775997
2,5, 1, 5, 0,12, 0.00,60.00,Monday
7,-9.8125
8,2.625
204,21.056154345459735
205,0.0
290,827938.1451729594
339,845.3080674960318
340,4670148.633306923
416,18744.036887998802
441,18744.036887998802
687,16.503335751066658
715,0.7764768936100168
11,8346288.073775997
2,5, 1, 5, 0,13, 0.00,60.00,Monday
7,-9.8875
8,2.375
204,21.22478684185117
205,0.0
290,836389.9152048419
339,887.9311970494524
340,4704886.011937197
416,18744.036887998802
441,18744.036887998802
687,16.626725527082055
715,0.7776061620230527
11,8346288.073775997
2,5, 1, 5, 0,14, 0.00,60.00,Monday
7,-10.0
8,2.0
204,21.007583255712177
205,4603969.261990805
290,0.0
339,776.6284332757671
340,4705706.454494124
416,18744.036887998802
441,18744.036887998802
687,16.520237622826492
715,0.778738496742106
11,256368.07377599765
2,5, 1, 5, 0,15, 0.00,60.00,Monday
7,-10.0
8,2.0
204,21.00000075536967
205,858723.3373782195
290,323718.38657356036
339,752.3202860984114
340,4693799.841083504
416,18744.036887998802
441,18744.036887998802
687,16.453341910904776
715,0.7790678119996961
11,6816288.073775997
2,5, 1, 5, 0,16, 0.00,60.00,Monday
7,-10.0
8,2.0
204,21.02752806540596
205,0.0
290,809634.4659564237
339,847.2452748505057
340,4694697.307624788
416,18744.036887998802
441,18744.036887998802
687,16.46140365928358
715,0.7787739042753057
11,8346288.073775997
2,5, 1, 5, 0,17, 0.00,60.00,Monday