Program Version,EnergyPlus, Version 25.2.0-cf7368216c, YMD=2026.04.09 21:20
1,5,Environment Title[],Latitude[deg],Longitude[deg],Time Zone[],Elevation[m]
2,8,Day of Simulation[],Month[],Day of Month[],DST Indicator[1=yes 0=no],Hour[],StartMinute[],EndMinute[],DayType
3,5,Cumulative Day of Simulation[],Month[],Day of Month[],DST Indicator[1=yes 0=no],DayType  ! When Daily Report Variables Requested
4,2,Cumulative Days of Simulation[],Month[]  ! When Monthly Report Variables Requested
5,1,Cumulative Days of Simulation[] ! When Run Period Report Variables Requested
6,1,Calendar Year of Simulation[] ! When Annual Report Variables Requested
7,1,Environment,Site Outdoor Air Drybulb Temperature [C] !Hourly
8,1,Environment,Site Wind Speed [m/s] !Hourly
204,1,MAINZONE,Zone Mean Air Temperature [C] !Hourly
205,1,MAINZONE,Zone Air System Sensible Heating Energy [J] !Hourly
290,1,MAINZONE,Zone Air System Sensible Cooling Energy [J] !Hourly
339,1,MAINZONE,Zone Air CO2 Concentration [ppm] !Hourly
340,1,LAB_HX,Heat Exchanger Sensible Heating Energy [J] !Hourly
416,1,SUPPLY_FAN,Fan Electricity Energy [J] !Hourly
441,1,EXHAUST_FAN,Fan Electricity Energy [J] !Hourly
687,1,ERV_SA_OUTLET,System Node Temperature [C] !Hourly
715,1,MAINZONE,Zone Mechanical Ventilation Air Changes per Hour [ach] !Hourly
11,1,Electricity:Facility [J] !Hourly
End of Data Dictionary
1,ANNUAL,  50.39,  30.54,   2.00, 178.60
2,1, 1, 1, 0, 1, 0.00,60.00,Thursday
7,-7.05
8,2.375
204,16.0
205,4874825.150989607
290,0.0
339,407.98658693032536
340,3648193.1853979863
416,18744.036887998802
441,18744.036887998802
687,13.51061792659192
715,0.7635166013256877
11,37488.073775997604
2,1, 1, 1, 0, 2, 0.00,60.00,Thursday
7,-9.625
8,1.375
204,16.0
205,5043294.708309858
290,0.0
339,404.1168038427639
340,4071374.078566412
416,18744.036887998802
441,18744.036887998802
687,13.321680504535285
715,0.7642527311361222
11,37488.073775997604
2,1, 1, 1, 0, 3, 0.00,60.00,Thursday
7,-9.0625
8,1.625
204,16.0
205,5117222.850622463
290,0.0
339,402.12967066770034
340,3980940.493852435
416,18744.036887998802
441,18744.036887998802
687,13.377003969508529
715,0.7593293585174062
11,37488.073775997604
2,1, 1, 1, 0, 4, 0.00,60.00,Thursday
7,-10.0625
8,0.75
204,16.0
205,5162974.359932834
290,0.0
339,401.1055663204986
340,4134443.6439416762
416,18744.036887998802
441,18744.036887998802
687,13.245690518802505
715,0.7613433118778182
11,37488.073775997604
2,1, 1, 1, 0, 5, 0.00,60.00,Thursday
7,-11.0
8,0.0
204,16.0
205,5195524.548691405
290,0.0
339,400.5729334259123
340,4294753.18913166
416,18744.036887998802
441,18744.036887998802
687,13.20992999864815
715,0.7643421864183877
11,37488.073775997604
2,1, 1, 1, 0, 6, 0.00,60.00,Thursday
7,-9.625
8,1.25
204,16.0
205,5210442.410414929
290,0.0
339,400.2970653405685
340,4071911.476567385
416,18744.036887998802
441,18744.036887998802
687,13.32846641027395
715,0.7602201363634551
11,37488.073775997604
2,1, 1, 1, 0, 7, 0.00,60.00,Thursday
7,-9.55
8,1.375
204,16.0
205,5230448.996096196
290,0.0
339,400.1543325294051
340,4051145.491481996
416,18744.036887998802
441,18744.036887998802
687,13.288235136808527
715,0.7618262458656366
11,37488.073775997604
2,1, 1, 1, 0, 8, 0.00,60.00,Thursday
7,-10.625
8,1.0
204,21.037486830490593
205,13799284.984603882
290,48405.96999950257
339,400.09071214262565
340,4787813.62346715
416,18744.036887998802
441,18744.036887998802
687,16.353263810439827
715,0.7779845791918515
11,37488.073775997604
2,1, 1, 1, 0, 9, 0.00,60.00,Thursday
7,-8.75
8,1.625
204,21.0
205,9885374.180364365
290,0.0
339,400.05298292683364
340,4518541.48871419
416,18744.036887998802
441,18744.036887998802
687,16.70481768045215
715,0.7771646010831067
11,37488.073775997604
2,1, 1, 1, 0,10, 0.00,60.00,Thursday
7,-9.025
8,1.375
204,21.0
205,2520283.1629105024
290,0.0
339,547.7957077799649
340,4561613.720514778
416,18744.036887998802
441,18744.036887998802
687,16.673563563032232
715,0.7784161204957335
11,6816288.073775997
2,1, 1, 1, 0,11, 0.00,60.00,Thursday
7,-8.125
8,1.625
204,21.000000000000004
205,52474.21517078001
290,302058.10590596136
339,748.319356364381
340,4413647.2238359
416,18744.036887998802
441,18744.036887998802
687,16.738152736221124
715,0.7798527300467765
11,8346288.073775997
2,1, 1, 1, 0,12, 0.00,60.00,Thursday
7,-5.000000000000001
8,2.625
204,21.12946984160274
205,0.0
290,704320.6896294155
339,843.3285236177305
340,3951528.5188369295
416,18744.036887998802
441,18744.036887998802
687,17.262289869847447
715,0.7772672974826369
11,8346288.073775997
2,1, 1, 1, 0,13, 0.00,60.00,Thursday
7,-3.925
8,3.625
204,21.380892523668344
205,0.0
290,680580.6493288634
339,886.6836503385543
340,3828074.5720684486
416,18744.036887998802
441,18744.036887998802
687,17.641754412750323
715,0.7783757024549011
11,8346288.073775997
2,1, 1, 1, 0,14, 0.00,60.00,Thursday
7,-2.75
8,4.0
204,21.003464534892245
205,4488478.216613454
290,0.0
339,771.3084757030163
340,3610077.958522004
416,18744.036887998802
441,18744.036887998802
687,17.592729746739842
715,0.7775697149442948
11,256368.07377599765
2,1, 1, 1, 0,15, 0.00,60.00,Thursday
7,-0.8750000000000001
8,4.625
204,21.016750328257874
205,818084.3701124243
290,380652.9294355334
339,748.3426242918015
340,3319573.5064676367
416,18744.036887998802
441,18744.036887998802
687,17.823357163931213
715,0.7779190900410207
11,6816288.073775997
2,1, 1, 1, 0,16, 0.00,60.00,Thursday
7,-0.075
8,4.375
204,21.240590090079422
205,0.0
290,573652.1285865596
339,845.4812854453236
340,3226004.5075874813
416,18744.036887998802
441,18744.036887998802
687,18.087997251312743
715,0.7785008198230279
11,8346288.073775997
2,1, 1, 1, 0,17, 0.00,60.00,Thursday
7,-1.25
8,4.625
204,21.456310366097508
205,0.0
290,607892.696197226
339,886.5546463997632
340,3437335.3966075736
416,18744.036887998802
441,18744.036887998802
687,18.11434593468718
715,0.7793530332659269
11,8346288.073775997
2,1, 1, 1, 0,18, 0.00,60.00,Thursday
7,-2.0625
8,3.75
204,21.64532033170019
205,0.0
290,635523.1002650824
339,904.9468789008849
340,3587421.666029542
416,18744.036887998802
441,18744.036887998802
687,18.15012039987101
715,0.7789997975085275
11,8346288.073775997
2,1, 1, 1, 0,19, 0.00,60.00,Thursday
7,-3.9125
8,3.0
204,21.001957975353182
205,4363065.301488604
290,0.0
339,766.8410383134617
340,3786808.403876514
416,18744.036887998802
441,18744.036887998802
687,17.41926442330838
715,0.7764648978675819
11,37488.073775997604
2,1, 1, 1, 0,20, 0.00,60.00,Thursday
7,-5.625
8,2.375
204,17.384678219060863
205,0.0
290,493655.8457525498
339,611.5275033919061
340,3600428.1928143
416,18744.036887998802
441,18744.036887998802
687,14.667971160428731
715,0.7628048599754316
11,37488.073775997604
2,1, 1, 1, 0,21, 0.00,60.00,Thursday
7,-5.0
8,2.625
204,16.0018904775065
205,1180658.0949884448
290,0.0
339,526.8022657258412
340,3264594.8272474967
416,18744.036887998802
441,18744.036887998802
687,13.405560961778706
715,0.762522629826717
11,37488.073775997604
2,1, 1, 1, 0,22, 0.00,60.00,Thursday
7,-4.15
8,3.0
204,16.000000080906922
205,2951541.0812087525
290,0.0
339,460.99715854343856
340,3090992.200276961
416,18744.036887998802
441,18744.036887998802
687,13.27794762357833
715,0.7627736900722863
11,37488.073775997604
2,1, 1, 1, 0,23, 0.00,60.00,Thursday
7,-4.0
8,2.375
204,16.000000000004466
205,4005711.022307108
290,0.0
339,430.60070387521284
340,3116541.286901815
416,18744.036887998802
441,18744.036887998802
687,13.570851221357717
715,0.763750723240124
11,37488.073775997604
2,1, 1, 1, 0,24, 0.00,60.00,Thursday
7,-3.875
8,2.625
204,16.0
205,4560512.164480573
290,0.0
339,415.56772933764626
340,3127083.6181044225
416,18744.036887998802
441,18744.036887998802
687,13.752014030560499
715,0.7629322450747574
11,37488.073775997604
2,2, 1, 2, 0, 1, 0.00,60.00,Friday
7,-3.925
8,3.625
204,16.0
205,4845265.497495186
290,0.0
339,407.9786941760232
340,3136490.529439952
416,18744.036887998802
441,18744.036887998802
687,13.75195849861631
715,0.7633105286148067
11,37488.073775997604
2,2, 1, 2, 0, 2, 0.00,60.00,Friday
7,-4.0
8,3.375
204,16.0
205,4983162.743478878
290,0.0
339,404.0999203304192
340,3150490.291001324
416,18744.036887998802
441,18744.036887998802
687,13.754803393298806
715,0.7638784226090127
11,37488.073775997604
2,2, 1, 2, 0, 3, 0.00,60.00,Friday
7,-4.0
8,3.625
204,16.0
205,5054837.577936174
290,0.0
339,402.11121729950884
340,3150490.2554990742
416,18744.036887998802
441,18744.036887998802
687,13.754803194404108
715,0.7638784226090127
11,37488.073775997604
2,2, 1, 2, 0, 4, 0.00,60.00,Friday
7,-4.0
8,3.375
204,16.0
205,5091315.28228856
290,0.0
339,401.08780394975986
340,3154772.6481424505
416,18744.036887998802
441,18744.036887998802
687,13.77428744843487
715,0.7638784227178288
11,37488.073775997604
2,2, 1, 2, 0, 5, 0.00,60.00,Friday
7,-4.0
8,4.875
204,16.0
205,5127163.891412119
290,0.0
339,400.56070741660824
340,3149313.2304819985
416,18744.036887998802
441,18744.036887998802
687,13.749441956105443
715,0.7638784226090127
11,37488.073775997604
2,2, 1, 2, 0, 6, 0.00,60.00,Friday
7,-4.375
8,5.375
204,15.999999999999998
205,5151052.152566656
290,0.0
339,400.288671828405
340,3203038.210991852
416,18744.036887998802
441,18744.036887998802
687,13.687430113495662
715,0.7617741968931661
11,37488.073775997604
2,2, 1, 2, 0, 7, 0.00,60.00,Friday
7,-6.1
8,5.0
204,16.0
205,5176620.25448326
290,0.0
339,400.14896095500677
340,3479219.105767679
416,18744.036887998802
441,18744.036887998802
687,13.522374504496689
715,0.7627374571843629
11,37488.073775997604
2,2, 1, 2, 0, 8, 0.00,60.00,Friday
7,-7.625
8,3.75
204,21.03841352974305
205,13712778.704897199
290,44121.23557078714
339,400.0872509540537
340,4331193.635502359
416,18744.036887998802
441,18744.036887998802
687,16.78122247918566
715,0.7777702626374096
11,37488.073775997604
2,2, 1, 2, 0, 9, 0.00,60.00,Friday
7,-7.562500000000001
8,4.25
204,21.0
205,9823375.39344321
290,0.0
339,400.0508142857114
340,4327520.807975197
416,18744.036887998802
441,18744.036887998802
687,16.81878879455428
715,0.7768858253502666
11,37488.073775997604
2,2, 1, 2, 0,10, 0.00,60.00,Friday
7,-8.3625
8,4.375
204,21.0
205,2514210.655673696
290,0.0
339,547.7125727196112
340,4450602.9308103435
416,18744.036887998802
441,18744.036887998802
687,16.711019366467774
715,0.7782234819011805
11,6816288.073775997
2,2, 1, 2, 0,11, 0.00,60.00,Friday
7,-9.0
8,4.625
204,21.0
205,54361.07072688812
290,295057.89529657195
339,747.6348717618818
340,4543895.220366593
416,18744.036887998802
441,18744.036887998802
687,16.6032006066195
715,0.7798580432122779
11,8346288.073775997
2,2, 1, 2, 0,12, 0.00,60.00,Friday
7,-8.0
8,3.75
204,21.11188499370234
205,0.0
290,785130.7644035823
339,842.3493277933627
340,4401096.567103738
416,18744.036887998802
441,18744.036887998802
687,16.80030351771756
715,0.7754845669904935
11,8346288.073775997
2,2, 1, 2, 0,13, 0.00,60.00,Friday
7,-7.775
8,3.625
204,21.377944492176212
205,0.0
290,786069.0355684841
339,886.6278504281893
340,4406625.130373522
416,18744.036887998802
441,18744.036887998802
687,17.058201298578567
715,0.777353576541803
11,8346288.073775997
2,2, 1, 2, 0,14, 0.00,60.00,Friday
7,-7.375
8,3.375
204,21.003488164159556
205,4344189.568150898
290,0.0
339,771.3180134052591
340,4306611.509103942
416,18744.036887998802
441,18744.036887998802
687,16.899365990332978
715,0.7777048685844459
11,256368.07377599765
2,2, 1, 2, 0,15, 0.00,60.00,Friday
7,-6.4375
8,3.0
204,21.0195888770301
205,776666.217816575
290,501870.50874756876
339,748.8918288733962
340,4155424.094355713
416,18744.036887998802
441,18744.036887998802
687,16.98998778629864
715,0.7749027109614306
11,6816288.073775997
2,2, 1, 2, 0,16, 0.00,60.00,Friday
7,-6.6625
8,2.375
204,21.23845950430067
205,0.0
290,752408.2478965507
339,847.2308209689579
340,4216590.59361282
416,18744.036887998802
441,18744.036887998802
687,17.101715601101777
715,0.776681034796645
11,8346288.073775997
2,2, 1, 2, 0,17, 0.00,60.00,Friday
7,-8.25
8,2.0
204,21.441947821098438
205,0.0
290,797788.4060362665
339,888.2072685631944
340,4489372.777119142
416,18744.036887998802
441,18744.036887998802
687,17.05341810819392
715,0.7793580132320922
11,8346288.073775997
2,2, 1, 2, 0,18, 0.00,60.00,Friday
7,-8.375
8,2.0
204,21.628617749444693
205,0.0
290,806637.4822818623
339,907.0485867159219
340,4534978.924611928
416,18744.036887998802
441,18744.036887998802
687,17.189379142488264
715,0.7755627230361124
11,8346288.073775997
2,2, 1, 2, 0,19, 0.00,60.00,Friday
7,-9.25
8,2.0
204,21.00194019254974
205,4239240.490595712
290,0.0
339,769.048047369303
340,4588826.935729619
416,18744.036887998802
441,18744.036887998802
687,16.61751372686388
715,0.7744640003769637
11,37488.073775997604
2,2, 1, 2, 0,20, 0.00,60.00,Friday
7,-10.0
8,2.0
204,17.341013286182523
205,0.0
290,589201.559169978
339,612.9914190100684
340,4266738.523751626
416,18744.036887998802
441,18744.036887998802
687,14.057780187354105
715,0.7627546123369953
11,37488.073775997604
2,2, 1, 2, 0,21, 0.00,60.00,Friday
7,-9.3125
8,2.0
204,16.00035961741917
205,1109325.4451812243
290,0.0
339,527.828756055054
340,3926857.69372724
416,18744.036887998802
441,18744.036887998802
687,12.832404509322743
715,0.7592990939193991
11,37488.073775997604
2,2, 1, 2, 0,22, 0.00,60.00,Friday
7,-9.5875
8,1.375
204,16.000000015992875
205,2881763.6680646734
290,0.0
339,461.7460619580477
340,3936426.072879467
416,18744.036887998802
441,18744.036887998802
687,12.612487281909921
715,0.7609008510561797
11,37488.073775997604
2,2, 1, 2, 0,23, 0.00,60.00,Friday
7,-10.0
8,1.0
204,16.000000000000913
205,3969825.043729402
290,0.0
339,431.05702729299355
340,4056629.781487025
416,18744.036887998802
441,18744.036887998802
687,12.876730604138174
715,0.7638564099602415
11,37488.073775997604
2,2, 1, 2, 0,24, 0.00,60.00,Friday
7,-9.25
8,1.0
204,16.0
205,4550185.363655753
290,0.0
339,415.8402786106721
340,3994797.781090222
416,18744.036887998802
441,18744.036887998802
687,13.276761949169638
715,0.7604585762026164
11,37488.073775997604
2,3, 1, 3, 0, 1, 0.00,60.00,Saturday
7,-9.55
8,1.0
204,16.0
205,4863378.223354276
290,0.0
339,408.15533684131805
340,4046698.111910606
416,18744.036887998802
441,18744.036887998802
687,13.269241191260516
715,0.7619956416392308
11,37488.073775997604
2,3, 1, 3, 0, 2, 0.00,60.00,Saturday
7,-10.0
8,1.0
204,16.0
205,5038328.067589014
290,0.0
339,404.2076888507125
340,4124323.959426476
416,18744.036887998802
441,18744.036887998802
687,13.256706210678242
715,0.764279270191828
11,37488.073775997604
2,3, 1, 3, 0, 3, 0.00,60.00,Saturday
7,-9.6875
8,1.625
204,16.000000000000004
205,5144371.0552050425
290,0.0
339,402.1766293938355
340,4074622.7188417832
416,18744.036887998802
441,18744.036887998802
687,13.290287487190485
715,0.7608864714267126
11,37488.073775997604
2,3, 1, 3, 0, 4, 0.00,60.00,Saturday
7,-10.4375
8,2.625
204,16.0
205,5228855.433144346
290,0.0
339,401.1293841429352
340,4192295.867869001
416,18744.036887998802
441,18744.036887998802
687,13.203776639560262
715,0.7622803633053556
11,37488.073775997604
2,3, 1, 3, 0, 5, 0.00,60.00,Saturday
7,-11.0
8,2.375
204,16.0
205,5288693.765234901
290,0.0
339,400.5853830823343
340,4288534.1392516475
416,18744.036887998802
441,18744.036887998802
687,13.183272740314706
715,0.7643421864183877
11,37488.073775997604
2,3, 1, 3, 0, 6, 0.00,60.00,Saturday
7,-10.3125
8,2.625
204,16.0
205,5331205.209378955
290,0.0
339,400.30383801043104
340,4178111.4469764913
416,18744.036887998802
441,18744.036887998802
687,13.247857871180763
715,0.7611191002108504
11,37488.073775997604
2,3, 1, 3, 0, 7, 0.00,60.00,Saturday
7,-10.5875
8,2.375
204,16.0
205,5373610.730297557
290,0.0
339,400.1580372159858
340,4217718.369115578
416,18744.036887998802
441,18744.036887998802
687,13.196412743865226
715,0.7624061602213731
11,37488.073775997604
2,3, 1, 3, 0, 8, 0.00,60.00,Saturday
7,-11.625
8,2.0
204,16.0
205,5423374.897969033
290,0.0
339,400.0821514200104
340,4393300.502852482
416,18744.036887998802
441,18744.036887998802
687,13.146546918110674
715,0.7643864312140483
11,37488.073775997604
2,3, 1, 3, 0, 9, 0.00,60.00,Saturday
7,-11.624999999999998
8,2.0
204,16.0
205,5442409.809702561
290,0.0
339,400.0427560605751
340,4397086.707324112
416,18744.036887998802
441,18744.036887998802
687,13.166320752215126
715,0.7611600967206855
11,37488.073775997604
2,3, 1, 3, 0,10, 0.00,60.00,Saturday
7,-11.15
8,3.25
204,16.0
205,5324725.426527038
290,0.0
339,400.0222626515637
340,4313897.098066244
416,18744.036887998802
441,18744.036887998802
687,13.171459872633337
715,0.7624149391537682
11,37488.073775997604
2,3, 1, 3, 0,11, 0.00,60.00,Saturday
7,-11.0
8,5.25
204,16.0
205,5278609.673229501
290,0.0
339,400.011523496996
340,4292554.265213988
416,18744.036887998802
441,18744.036887998802
687,13.200507036636193
715,0.7643421864183877
11,37488.073775997604
2,3, 1, 3, 0,12, 0.00,60.00,Saturday
7,-10.5625
8,4.125
204,16.0
205,5344471.25849424
290,0.0
339,400.0059594255373
340,4224087.25265546
416,18744.036887998802
441,18744.036887998802
687,13.250860992088564
715,0.7609439671210337
11,37488.073775997604
2,3, 1, 3, 0,13, 0.00,60.00,Saturday
7,-9.4875
8,3.625
204,16.0
205,5430285.453529817
290,0.0
339,400.0030991191728
340,4039542.6647573174
416,18744.036887998802
441,18744.036887998802
687,13.2878850097085
715,0.7622175781134507
11,37488.073775997604
2,3, 1, 3, 0,14, 0.00,60.00,Saturday
7,-8.375
8,3.375
204,16.0
205,5482590.946671385
290,0.0
339,400.0016100519594
340,3858569.3419410824
416,18744.036887998802
441,18744.036887998802
687,13.381375398007572
715,0.764164278748694
11,37488.073775997604
2,3, 1, 3, 0,15, 0.00,60.00,Saturday
7,-7.375
8,3.625
204,16.0
205,5532518.443137444
290,0.0
339,400.0008369723916
340,3694946.591819973
416,18744.036887998802
441,18744.036887998802
687,13.45809591211646
715,0.7640984442361574
11,37488.073775997604
2,3, 1, 3, 0,16, 0.00,60.00,Saturday
7,-6.375
8,4.625
204,16.0
205,5590362.159788376
290,0.0
339,400.0004350749654
340,3528393.4348364053
416,18744.036887998802
441,18744.036887998802
687,13.522048793878287
715,0.7640355680195539
11,37488.073775997604
2,3, 1, 3, 0,17, 0.00,60.00,Saturday
7,-6.625
8,3.75
204,16.0
205,5636120.361053547
290,0.0
339,400.00022625264467
340,3570439.3817185536
416,18744.036887998802
441,18744.036887998802
687,13.507783813635221
715,0.7640512860763472
11,37488.073775997604
2,3, 1, 3, 0,18, 0.00,60.00,Saturday
7,-6.6875
8,3.625
204,16.0
205,5658177.7993109375
290,0.0
339,400.0001179385151
340,3587201.978349521
416,18744.036887998802
441,18744.036887998802
687,13.534089175049589
715,0.7620671705379775
11,37488.073775997604
2,3, 1, 3, 0,19, 0.00,60.00,Saturday
7,-6.8125
8,4.0
204,16.0
205,5667413.464653447
290,0.0
339,400.0000615233845
340,3602940.8967818934
416,18744.036887998802
441,18744.036887998802
687,13.499419980222774
715,0.762869403948948
11,37488.073775997604
2,3, 1, 3, 0,20, 0.00,60.00,Saturday
7,-6.375
8,4.625
204,16.0
205,5667666.811264911
290,0.0
339,400.0000320459116
340,3528393.4348364053
416,18744.036887998802
441,18744.036887998802
687,13.522048793878286
715,0.764035568128408
11,37488.073775997604
2,3, 1, 3, 0,21, 0.00,60.00,Saturday
7,-6.0625
8,5.625
204,16.0
205,5671169.32813058
290,0.0
339,400.0000166705055
340,3479380.5624736072
416,18744.036887998802
441,18744.036887998802
687,13.557160213711242
715,0.7624099750370369
11,37488.073775997604
2,3, 1, 3, 0,22, 0.00,60.00,Saturday
7,-6.0375
8,6.0
204,16.0
205,5670960.041292135
290,0.0
339,400.0000086679542
340,3471450.981803278
416,18744.036887998802
441,18744.036887998802
687,13.538749394243219
715,0.7630502441411444
11,37488.073775997604
2,3, 1, 3, 0,23, 0.00,60.00,Saturday
7,-6.625
8,6.0
204,16.0
205,5675356.093427319
290,0.0
339,400.00000450183046
340,3570439.395154219
416,18744.036887998802
441,18744.036887998802
687,13.507783889010717
715,0.7640512860763516
11,37488.073775997604
2,3, 1, 3, 0,24, 0.00,60.00,Saturday
7,-7.0625
8,5.375
204,16.0
205,5672878.192659472
290,0.0
339,400.00000233947515
340,3646192.596306331
416,18744.036887998802
441,18744.036887998802
687,13.494033876549356
715,0.7626681487991098
11,37488.073775997604
2,4, 1, 4, 0, 1, 0.00,60.00,Sunday
7,-7.6625
8,4.375
204,16.0
205,5668484.307026077
290,0.0
339,400.0000012184014
340,3741320.2756308354
416,18744.036887998802
441,18744.036887998802
687,13.431472226066102
715,0.7632696633413116
11,37488.073775997604
2,4, 1, 4, 0, 2, 0.00,60.00,Sunday
7,-8.0
8,4.0
204,16.0
205,5670338.802848484
290,0.0
339,400.0000006347886
340,3797138.1225421657
416,18744.036887998802
441,18744.036887998802
687,13.409732419135462
715,0.7641377465457599
11,37488.073775997604
2,4, 1, 4, 0, 3, 0.00,60.00,Sunday
7,-7.75
8,4.625
204,16.0
205,5680605.3021346945
290,0.0
339,400.00000033070825
340,3756939.3156669503
416,18744.036887998802
441,18744.036887998802
687,13.432948457014755
715,0.7632350164905181
11,37488.073775997604
2,4, 1, 4, 0, 4, 0.00,60.00,Sunday
7,-7.225
8,3.75
204,16.0
205,5675707.936032182
290,0.0
339,400.00000017231673
340,3666616.6070224326
416,18744.036887998802
441,18744.036887998802
687,13.451893311628638
715,0.7635566726051142
11,37488.073775997604
2,4, 1, 4, 0, 5, 0.00,60.00,Sunday
7,-7.0
8,4.25
204,16.0
205,5689614.654963808
290,0.0
339,400.00000008983
340,3626249.862692123
416,18744.036887998802
441,18744.036887998802
687,13.454326252680344
715,0.7640748639699293
11,37488.073775997604
2,4, 1, 4, 0, 6, 0.00,60.00,Sunday
7,-6.812499999999999
8,4.375
204,16.0
205,5702432.68800965
290,0.0
339,400.0000000467832
340,3596400.162814045
416,18744.036887998802
441,18744.036887998802
687,13.472211968568686
715,0.7642763318739967
11,37488.073775997604
2,4, 1, 4, 0, 7, 0.00,60.00,Sunday
7,-6.8875
8,4.0
204,16.0
205,5712570.9824997205
290,0.0
339,400.00000002437935
340,3613161.0183549114
416,18744.036887998802
441,18744.036887998802
687,13.48679807159854
715,0.764195736321708
11,37488.073775997604
2,4, 1, 4, 0, 8, 0.00,60.00,Sunday
7,-7.0
8,4.625
204,16.0
205,5735571.725341525
290,0.0
339,400.00000001270803
340,3632493.4615085186
416,18744.036887998802
441,18744.036887998802
687,13.482039389769554
715,0.7640748640788013
11,37488.073775997604
2,4, 1, 4, 0, 9, 0.00,60.00,Sunday
7,-6.6875
8,5.0
204,16.0
205,5751474.710645635
290,0.0
339,400.0000000066193
340,3580068.347459749
416,18744.036887998802
441,18744.036887998802
687,13.499542058496543
715,0.7648962761197708
11,37488.073775997604
2,4, 1, 4, 0,10, 0.00,60.00,Sunday
7,-6.1875
8,6.25
204,16.0
205,5751480.256374773
290,0.0
339,400.00000000344346
340,3494957.473253848
416,18744.036887998802
441,18744.036887998802
687,13.525007216128747
715,0.7645282402688897
11,37488.073775997604
2,4, 1, 4, 0,11, 0.00,60.00,Sunday
7,-6.625
8,5.75
204,16.0
205,5721513.027921455
290,0.0
339,400.0000000017888
340,3571882.2258209814
416,18744.036887998802
441,18744.036887998802
687,13.514175330932094
715,0.7640512861852102
11,37488.073775997604
2,4, 1, 4, 0,12, 0.00,60.00,Sunday
7,-6.562500000000001
8,3.75
204,16.0
205,5685252.3395656105
290,0.0
339,400.000000000931
340,3565305.280776931
416,18744.036887998802
441,18744.036887998802
687,13.53418003933582
715,0.7652264207644027
11,37488.073775997604
2,4, 1, 4, 0,13, 0.00,60.00,Sunday
7,-6.1125
8,4.25
204,16.0
205,5689203.717066377
290,0.0
339,400.000000000485
340,3491139.448177204
416,18744.036887998802
441,18744.036887998802
687,13.56892082411241
715,0.7647261771397194
11,37488.073775997604
2,4, 1, 4, 0,14, 0.00,60.00,Sunday
7,-6.0
8,4.375
204,15.999999999999998
205,5699049.464377956
290,0.0
339,400.0000000002526
340,3470311.7449108018
416,18744.036887998802
441,18744.036887998802
687,13.565611826689292
715,0.764011991633884
11,37488.073775997604
2,4, 1, 4, 0,15, 0.00,60.00,Sunday
7,-5.375
8,4.625
204,16.0
205,5713049.557617864
290,0.0
339,400.00000000013176
340,3365502.1594247455
416,18744.036887998802
441,18744.036887998802
687,13.602605998123586
715,0.763967791523162
11,37488.073775997604
2,4, 1, 4, 0,16, 0.00,60.00,Sunday
7,-5.0
8,4.375
204,16.0
205,5734432.473704405
290,0.0
339,400.00000000006884
340,3305481.4448157293
416,18744.036887998802
441,18744.036887998802
687,13.637675584061137
715,0.7639412727449916
11,37488.073775997604
2,4, 1, 4, 0,17, 0.00,60.00,Sunday
7,-5.0
8,3.375
204,16.0
205,5753170.907754241
290,0.0
339,400.000000000036
340,3310749.2272546017
416,18744.036887998802
441,18744.036887998802
687,13.661454723232795
715,0.7639412728538255
11,37488.073775997604
2,4, 1, 4, 0,18, 0.00,60.00,Sunday
7,-5.125
8,3.0
204,16.0
205,5755374.466105325
290,0.0
339,400.0000000000189
340,3332675.978575106
416,18744.036887998802
441,18744.036887998802
687,13.656587461467215
715,0.7658029017174485
11,37488.073775997604
2,4, 1, 4, 0,19, 0.00,60.00,Sunday
7,-5.075
8,2.375
204,15.999999999999998
205,5741086.701504246
290,0.0
339,400.00000000001
340,3327332.198411436
416,18744.036887998802
441,18744.036887998802
687,13.67682627327936
715,0.7650575241484876
11,37488.073775997604
2,4, 1, 4, 0,20, 0.00,60.00,Sunday
7,-5.0
8,2.0
204,16.0
205,5719412.803401459
290,0.0
339,400.00000000000534
340,3312836.850663195
416,18744.036887998802
441,18744.036887998802
687,13.670874748774626
715,0.7639412728538255
11,37488.073775997604
2,4, 1, 4, 0,21, 0.00,60.00,Sunday
7,-4.5
8,3.25
204,16.0
205,5701095.7917886665
290,0.0
339,400.00000000000284
340,3232474.280763968
416,18744.036887998802
441,18744.036887998802
687,13.714982709094103
715,0.7655214825868605
11,37488.073775997604
2,4, 1, 4, 0,22, 0.00,60.00,Sunday
7,-4.075
8,2.75
204,16.0
205,5673498.652027888
290,0.0
339,400.00000000000165
340,3165413.4675522754
416,18744.036887998802
441,18744.036887998802
687,13.762449676663152
715,0.7648495286024075
11,37488.073775997604
2,4, 1, 4, 0,23, 0.00,60.00,Sunday
7,-4.0
8,2.0
204,16.0
205,5651545.479000831
290,0.0
339,400.0000000000013
340,3150490.2732501994
416,18744.036887998802
441,18744.036887998802
687,13.754803293851456
715,0.7638784226090127
11,37488.073775997604
2,4, 1, 4, 0,24, 0.00,60.00,Sunday
7,-3.875
8,1.375
204,16.0
205,5634435.114422721
290,0.0
339,400.0000000000008
340,3133316.8657161198
416,18744.036887998802
441,18744.036887998802
687,13.778727354220711
715,0.7647584869045685
11,37488.073775997604
2,5, 1, 5, 0, 1, 0.00,60.00,Monday
7,-4.55
8,3.5
204,16.0
205,5639754.9504504055
290,0.0
339,400.0000000000005
340,3246803.2132419045
416,18744.036887998802
441,18744.036887998802
687,13.741178572099782
715,0.7644456158669579
11,37488.073775997604
2,5, 1, 5, 0, 2, 0.00,60.00,Monday
7,-5.0
8,3.75
204,16.0
205,5634436.322067702
290,0.0
339,400.00000000000045
340,3311743.6267158356
416,18744.036887998802
441,18744.036887998802
687,13.665939274733995
715,0.7639412728538255
11,37488.073775997604
2,5, 1, 5, 0, 3, 0.00,60.00,Monday
7,-5.0
8,3.0
204,16.000000000000004
205,5619032.072101039
290,0.0
339,400.0000000000004
340,3307270.2594480356
416,18744.036887998802
441,18744.036887998802
687,13.64575279636621
715,0.7639412729626593
11,37488.073775997604
2,5, 1, 5, 0, 4, 0.00,60.00,Monday
7,-5.625
8,3.625
204,16.000000000000004
205,5620456.837892355
290,0.0
339,400.00000000000034
340,3412402.795742646
416,18744.036887998802
441,18744.036887998802
687,13.610081127260589
715,0.7639854712453952
11,37488.073775997604
2,5, 1, 5, 0, 5, 0.00,60.00,Monday
7,-6.0
8,3.375
204,16.0
205,5616302.098230818
290,0.0
339,400.0000000000003
340,3475478.297770255
416,18744.036887998802
441,18744.036887998802
687,13.588724889332088
715,0.7640119918515923
11,37488.073775997604
2,5, 1, 5, 0, 6, 0.00,60.00,Monday
7,-6.749999999999999
8,3.0
204,16.0
205,5614106.442360065
290,0.0
339,400.00000000000034
340,3600349.5158261037
416,18744.036887998802
441,18744.036887998802
687,13.540930400633783
715,0.7633153235290793
11,37488.073775997604
2,5, 1, 5, 0, 7, 0.00,60.00,Monday
7,-7.7
8,3.0
204,16.0
205,5615451.894338755
290,0.0
339,400.0000000000004
340,3756333.611438232
416,18744.036887998802
441,18744.036887998802
687,13.468428376987259
715,0.7636724254016272
11,37488.073775997604
2,5, 1, 5, 0, 8, 0.00,60.00,Monday
7,-8.625
8,2.375
204,21.03469540248895
205,14238305.763079183
290,45194.3050687112
339,400.0000000000006
340,4484191.060711708
416,18744.036887998802
441,18744.036887998802
687,16.630363347177582
715,0.7778899916171969
11,37488.073775997604
2,5, 1, 5, 0, 9, 0.00,60.00,Monday
7,-9.125
8,2.0
204,21.000000000000004
205,10269331.542947995
290,0.0
339,400.0000000000005
340,4583931.054092909
416,18744.036887998802
441,18744.036887998802
687,16.695966502949553
715,0.7785313753200682
11,37488.073775997604
2,5, 1, 5, 0,10, 0.00,60.00,Monday
7,-9.7
8,2.0
204,21.0
205,3044738.9878181196
290,0.0
339,546.0859271324832
340,4676561.840411628
416,18744.036887998802
441,18744.036887998802
687,16.643876565784943
715,0.7792771318570654
11,6816288.073775997
2,5, 1, 5, 0,11, 0.00,60.00,Monday
7,-10.0
8,2.0
204,21.0
205,332045.45975322125
290,26510.25711025395
339,744.5638024710801
340,4704352.789307583
416,18744.036887998802
441,18744.036887998802
687,16.50394614759213
715,0.7800711766340694
11,8346288.073775997
2,5, 1, 5, 0,12, 0.00,60.00,Monday
7,-9.8125
8,2.625
204,21.0
205,0.0
290,512905.18020917114
339,840.2323278235302
340,4666245.895226278
416,18744.036887998802
441,18744.036887998802
687,16.481364090690086
715,0.7768398944794489
11,8346288.073775997
2,5, 1, 5, 0,13, 0.00,60.00,Monday
7,-9.8875
8,2.375
204,21.035910714923265
205,0.0
290,822209.8823059315
339,885.4533932654725
340,4679351.832505003
416,18744.036887998802
441,18744.036887998802
687,16.483325317745027
715,0.7775755723197304
11,8346288.073775997
2,5, 1, 5, 0,14, 0.00,60.00,Monday
7,-10.0
8,2.0
204,21.00231083043345
205,4994288.796560636
290,0.0
339,776.3908649182825
340,4697243.351813689
416,18744.036887998802
441,18744.036887998802
687,16.47267662828379
715,0.7790798037701376
11,256368.07377599765
2,5, 1, 5, 0,15, 0.00,60.00,Monday
7,-10.0
8,2.0
204,21.000000247470332
205,938804.5561756646
290,154121.49129804724
339,752.4982425404867
340,4693798.959372111
416,18744.036887998802
441,18744.036887998802
687,16.45330230679336
715,0.7793287918153338
11,6816288.073775997
2,5, 1, 5, 0,16, 0.00,60.00,Monday
7,-10.0
8,2.0
204,21.000000000002746
205,0.0
290,691184.3461307728
339,846.7448569287284
340,4693266.025868523
416,18744.036887998802
441,18744.036887998802
687,16.45333144255618
715,0.7789802142439379