Program Version,EnergyPlus, Version 25.2.0-cf7368216c, YMD=2026.04.19 20:02
1,5,Environment Title[],Latitude[deg],Longitude[deg],Time Zone[],Elevation[m]
2,8,Day of Simulation[],Month[],Day of Month[],DST Indicator[1=yes 0=no],Hour[],StartMinute[],EndMinute[],DayType
3,5,Cumulative Day of Simulation[],Month[],Day of Month[],DST Indicator[1=yes 0=no],DayType  ! When Daily Report Variables Requested
4,2,Cumulative Days of Simulation[],Month[]  ! When Monthly Report Variables Requested
5,1,Cumulative Days of Simulation[] ! When Run Period Report Variables Requested
6,1,Calendar Year of Simulation[] ! When Annual Report Variables Requested
7,1,Environment,Site Outdoor Air Drybulb Temperature [C] !Hourly
8,1,Environment,Site Wind Speed [m/s] !Hourly
204,1,MAINZONE,Zone Mean Air Temperature [C] !Hourly
205,1,MAINZONE,Zone Air System Sensible Heating Energy [J] !Hourly
290,1,MAINZONE,Zone Air System Sensible Cooling Energy [J] !Hourly
339,1,MAINZONE,Zone Air CO2 Concentration [ppm] !Hourly
340,1,LAB_HX,Heat Exchanger Sensible Heating Energy [J] !Hourly
416,1,SUPPLY_FAN,Fan Electricity Energy [J] !Hourly
441,1,EXHAUST_FAN,Fan Electricity Energy [J] !Hourly
687,1,ERV_SA_OUTLET,System Node Temperature [C] !Hourly
715,1,MAINZONE,Zone Mechanical Ventilation Air Changes per Hour [ach] !Hourly
11,1,Electricity:Facility [J] !Hourly
End of Data Dictionary
1,ANNUAL,  50.39,  30.54,   2.00, 178.60
2,1, 1, 1, 0, 1, 0.00,60.00,Thursday
7,-7.05
8,2.375
204,15.0
205,232284.2797198633
290,0.0
339,737.4786785032721
340,0.0
416,0.0
441,0.0
687,-7.05
715,0.0
11,0.0
2,1, 1, 1, 0, 2, 0.00,60.00,Thursday
7,-9.625
8,1.375
204,15.0
205,311854.2343157465
290,0.0
339,717.2182510009519
340,0.0
416,0.0
441,0.0
687,-9.625
715,0.0
11,0.0
2,1, 1, 1, 0, 3, 0.00,60.00,Thursday
7,-9.0625
8,1.625
204,15.0
205,342155.3575599069
290,0.0
339,698.4661637255946
340,0.0
416,0.0
441,0.0
687,-9.0625
715,0.0
11,0.0
2,1, 1, 1, 0, 4, 0.00,60.00,Thursday
7,-10.0625
8,0.75
204,15.0
205,387641.9397360609
290,0.0
339,680.7910427915331
340,0.0
416,0.0
441,0.0
687,-10.0625
715,0.0
11,0.0
2,1, 1, 1, 0, 5, 0.00,60.00,Thursday
7,-11.0
8,0.0
204,15.0
205,434536.6810162859
290,0.0
339,664.4174838282764
340,0.0
416,0.0
441,0.0
687,-11.0
715,0.0
11,0.0
2,1, 1, 1, 0, 6, 0.00,60.00,Thursday
7,-9.625
8,1.25
204,15.0
205,454855.6281445349
290,0.0
339,648.9831252749102
340,0.0
416,0.0
441,0.0
687,-9.625
715,0.0
11,0.0
2,1, 1, 1, 0, 7, 0.00,60.00,Thursday
7,-9.55
8,1.375
204,15.0
205,490026.60501583247
290,0.0
339,634.2566141932814
340,0.0
416,0.0
441,0.0
687,-9.55
715,0.0
11,0.0
2,1, 1, 1, 0, 8, 0.00,60.00,Thursday
7,-10.625
8,1.0
204,21.200265934276548
205,10718312.675467486
290,0.0
339,624.5444632104721
340,0.0
416,0.0
441,0.0
687,-10.625
715,0.0
11,0.0
2,1, 1, 1, 0, 9, 0.00,60.00,Thursday
7,-8.75
8,1.625
204,21.000000004722285
205,9581622.83158311
290,0.0
339,614.7898468556517
340,0.0
416,0.0
441,0.0
687,-8.75
715,0.0
11,0.0
2,1, 1, 1, 0,10, 0.00,60.00,Thursday
7,-9.025
8,1.375
204,21.000000000000327
205,4251321.5858510565
290,0.0
339,691.6753733359973
340,4570394.129537424
416,18744.036887998802
441,18744.036887998802
687,16.722814660029
715,0.7784458864413306
11,6816288.073775997
2,1, 1, 1, 0,11, 0.00,60.00,Thursday
7,-8.125
8,1.625
204,21.0
205,2969012.8489898043
290,0.0
339,798.1601811293775
340,4412985.598278085
416,18744.036887998802
441,18744.036887998802
687,16.734446769985727
715,0.7798282723604656
11,8346288.073775997
2,1, 1, 1, 0,12, 0.00,60.00,Thursday
7,-5.000000000000001
8,2.625
204,21.0
205,2808135.7604323686
290,0.0
339,848.6749985507972
340,3940998.35819289
416,18744.036887998802
441,18744.036887998802
687,17.203221735994326
715,0.7771372506697667
11,8346288.073775997
2,1, 1, 1, 0,13, 0.00,60.00,Thursday
7,-3.925
8,3.625
204,21.0
205,2706206.515689294
290,0.0
339,872.7881788065183
340,3778632.374895811
416,18744.036887998802
441,18744.036887998802
687,17.364491047582533
715,0.7778180214167532
11,8346288.073775997
2,1, 1, 1, 0,14, 0.00,60.00,Thursday
7,-2.75
8,4.0
204,21.0
205,8297415.846937852
290,0.0
339,763.7056510135576
340,3600819.0764867584
416,18744.036887998802
441,18744.036887998802
687,17.54074569771167
715,0.7791269154015144
11,256368.07377599765
2,1, 1, 1, 0,15, 0.00,60.00,Thursday
7,-0.8750000000000001
8,4.625
204,21.0
205,3615740.775868474
290,0.0
339,738.8069856568081
340,3319336.4132940443
416,18744.036887998802
441,18744.036887998802
687,17.821961108737206
715,0.7784081931039534
11,6816288.073775997
2,1, 1, 1, 0,16, 0.00,60.00,Thursday
7,-0.075
8,4.375
204,21.0
205,2483847.4391666846
290,0.0
339,821.3148582878648
340,3199932.648362008
416,18744.036887998802
441,18744.036887998802
687,17.94196389068657
715,0.7785202932579018
11,8346288.073775997
2,1, 1, 1, 0,17, 0.00,60.00,Thursday
7,-1.25
8,4.625
204,21.0
205,2425891.8438885245
290,0.0
339,858.359198295259
340,3375143.3561778544
416,18744.036887998802
441,18744.036887998802
687,17.76574267943422
715,0.77892200873661
11,8346288.073775997
2,1, 1, 1, 0,18, 0.00,60.00,Thursday
7,-2.0625
8,3.75
204,21.0
205,2336018.557915636
290,0.0
339,875.7652944590322
340,3497131.6795484577
416,18744.036887998802
441,18744.036887998802
687,17.643894130519843
715,0.7781738215433228
11,8346288.073775997
2,1, 1, 1, 0,19, 0.00,60.00,Thursday
7,-3.9125
8,3.0
204,21.0
205,8198940.841555273
290,0.0
339,869.0868756163766
340,0.0
416,0.0
441,0.0
687,-3.9125
715,0.0
11,0.0
2,1, 1, 1, 0,20, 0.00,60.00,Thursday
7,-5.625
8,2.375
204,16.955629511324243
205,0.0
290,0.0
339,850.8468903477701
340,0.0
416,0.0
441,0.0
687,-5.624999999999999
715,0.0
11,0.0
2,1, 1, 1, 0,21, 0.00,60.00,Thursday
7,-5.0
8,2.625
204,15.192035004659218
205,0.0
290,0.0
339,833.5216624920458
340,0.0
416,0.0
441,0.0
687,-5.0
715,0.0
11,0.0
2,1, 1, 1, 0,22, 0.00,60.00,Thursday
7,-4.15
8,3.0
204,15.000005822025829
205,97493.5247755518
290,0.0
339,807.6752677047508
340,0.0
416,0.0
441,0.0
687,-4.15
715,0.0
11,0.0
2,1, 1, 1, 0,23, 0.00,60.00,Thursday
7,-4.0
8,2.375
204,15.0
205,166613.0441327443
290,0.0
339,782.5492069018985
340,0.0
416,0.0
441,0.0
687,-4.0
715,0.0
11,0.0
2,1, 1, 1, 0,24, 0.00,60.00,Thursday
7,-3.875
8,2.625
204,15.0
205,220532.37555977338
290,0.0
339,759.5349496556702
340,0.0
416,0.0
441,0.0
687,-3.875
715,0.0
11,0.0
2,2, 1, 2, 0, 1, 0.00,60.00,Friday
7,-3.925
8,3.625
204,15.0
205,282939.9051100261
290,0.0
339,737.1307243290812
340,0.0
416,0.0
441,0.0
687,-3.925
715,0.0
11,0.0
2,2, 1, 2, 0, 2, 0.00,60.00,Friday
7,-4.0
8,3.375
204,14.999999999999998
205,322644.8376923719
290,0.0
339,715.5109366377812
340,0.0
416,0.0
441,0.0
687,-4.0
715,0.0
11,0.0
2,2, 1, 2, 0, 3, 0.00,60.00,Friday
7,-4.0
8,3.625
204,15.0
205,370441.8727202548
290,0.0
339,695.6769795768532
340,0.0
416,0.0
441,0.0
687,-4.0
715,0.0
11,0.0
2,2, 1, 2, 0, 4, 0.00,60.00,Friday
7,-4.0
8,3.375
204,15.0
205,407264.5747812978
290,0.0
339,676.7816038178345
340,0.0
416,0.0
441,0.0
687,-4.0
715,0.0
11,0.0
2,2, 1, 2, 0, 5, 0.00,60.00,Friday
7,-4.0
8,4.875
204,15.0
205,481500.79923088086
290,0.0
339,658.879256169832
340,0.0
416,0.0
441,0.0
687,-4.0
715,0.0
11,0.0
2,2, 1, 2, 0, 6, 0.00,60.00,Friday
7,-4.375
8,5.375
204,15.0
205,539916.7625539949
290,0.0
339,640.1585612969623
340,0.0
416,0.0
441,0.0
687,-4.375
715,0.0
11,0.0
2,2, 1, 2, 0, 7, 0.00,60.00,Friday
7,-6.1
8,5.0
204,15.0
205,603098.8748367452
290,0.0
339,623.1898244503396
340,0.0
416,0.0
441,0.0
687,-6.1
715,0.0
11,0.0
2,2, 1, 2, 0, 8, 0.00,60.00,Friday
7,-7.625
8,3.75
204,21.18404121290579
205,10999206.353538647
290,0.0
339,612.4316741991383
340,0.0
416,0.0
441,0.0
687,-7.625
715,0.0
11,0.0
2,2, 1, 2, 0, 9, 0.00,60.00,Friday
7,-7.562500000000001
8,4.25
204,21.00000000660178
205,9858058.559839986
290,0.0
339,602.3236753292178
340,0.0
416,0.0
441,0.0
687,-7.562500000000001
715,0.0
11,0.0
2,2, 1, 2, 0,10, 0.00,60.00,Friday
7,-8.3625
8,4.375
204,21.000000000000504
205,4554152.750429499
290,0.0
339,681.0376759325397
340,4456520.915768387
416,18744.036887998802
441,18744.036887998802
687,16.7442121284895
715,0.7782399435999136
11,6816288.073775997
2,2, 1, 2, 0,11, 0.00,60.00,Friday
7,-9.0
8,4.625
204,21.0
205,3284827.218172947
290,0.0
339,790.0859376054016
340,4543895.220366593
416,18744.036887998802
441,18744.036887998802
687,16.60320980863872
715,0.7798154839279553
11,8346288.073775997
2,2, 1, 2, 0,12, 0.00,60.00,Friday
7,-8.0
8,3.75
204,20.999999999999996
205,3073161.0811261293
290,0.0
339,842.2076096235061
340,4392713.584739272
416,18744.036887998802
441,18744.036887998802
687,16.753246583991842
715,0.7754145339837296
11,8346288.073775997
2,2, 1, 2, 0,13, 0.00,60.00,Friday
7,-7.775
8,3.625
204,21.0
205,2931454.5967746335
290,0.0
339,869.46315220962
340,4358314.181912404
416,18744.036887998802
441,18744.036887998802
687,16.787015859108536
715,0.7769047887041683
11,8346288.073775997
2,2, 1, 2, 0,14, 0.00,60.00,Friday
7,-7.375
8,3.375
204,21.0
205,8506607.732167883
290,0.0
339,762.6840803451923
340,4297301.354242496
416,18744.036887998802
441,18744.036887998802
687,16.847019646487276
715,0.7793855876361826
11,256368.07377599765
2,2, 1, 2, 0,15, 0.00,60.00,Friday
7,-6.4375
8,3.0
204,21.0
205,3807619.885094311
290,0.0
339,739.4762173696854
340,4155017.9570889743
416,18744.036887998802
441,18744.036887998802
687,16.98762076858858
715,0.7755367271221103
11,6816288.073775997
2,2, 1, 2, 0,16, 0.00,60.00,Friday
7,-6.6625
8,2.375
204,21.0
205,2683874.237960851
290,0.0
339,823.269057218938
340,4190263.429235292
416,18744.036887998802
441,18744.036887998802
687,16.953884588689327
715,0.7769420129440354
11,8346288.073775997
2,2, 1, 2, 0,17, 0.00,60.00,Friday
7,-8.25
8,2.0
204,21.0
205,2615506.637819579
290,0.0
339,860.856196107492
340,4429248.788762778
416,18744.036887998802
441,18744.036887998802
687,16.715780322167824
715,0.7793108327215766
11,8346288.073775997
2,2, 1, 2, 0,18, 0.00,60.00,Friday
7,-8.375
8,2.0
204,21.0
205,2535665.8179168263
290,0.0
339,879.2463065042919
340,4447316.154064209
416,18744.036887998802
441,18744.036887998802
687,16.69704661136039
715,0.7752267895017215
11,8346288.073775997
2,2, 1, 2, 0,19, 0.00,60.00,Friday
7,-9.25
8,2.0
204,21.0
205,8399943.98179897
290,0.0
339,872.8895516966959
340,0.0
416,0.0
441,0.0
687,-9.25
715,0.0
11,0.0
2,2, 1, 2, 0,20, 0.00,60.00,Friday
7,-10.0
8,2.0
204,16.86879552739132
205,0.0
290,0.0
339,854.7530340133335
340,0.0
416,0.0
441,0.0
687,-10.0
715,0.0
11,0.0
2,2, 1, 2, 0,21, 0.00,60.00,Friday
7,-9.3125
8,2.0
204,15.073174177969609
205,81068.83180481594
290,0.0
339,837.3056609023325
340,0.0
416,0.0
441,0.0
687,-9.3125
715,0.0
11,0.0
2,2, 1, 2, 0,22, 0.00,60.00,Friday
7,-9.5875
8,1.375
204,15.000000000111648
205,248441.3337615435
290,0.0
339,812.0877917825094
340,0.0
416,0.0
441,0.0
687,-9.5875
715,0.0
11,0.0
2,2, 1, 2, 0,23, 0.00,60.00,Friday
7,-10.0
8,1.0
204,15.0
205,324029.03999104054
290,0.0
339,787.7023865953247
340,0.0
416,0.0
441,0.0
687,-10.0
715,0.0
11,0.0
2,2, 1, 2, 0,24, 0.00,60.00,Friday
7,-9.25
8,1.0
204,15.0
205,366375.9680962241
290,0.0
339,764.9218739114408
340,0.0
416,0.0
441,0.0
687,-9.25
715,0.0
11,0.0
2,3, 1, 3, 0, 1, 0.00,60.00,Saturday
7,-9.55
8,1.0
204,15.0
205,427312.71432103985
290,0.0
339,743.5564897992635
340,0.0
416,0.0
441,0.0
687,-9.55
715,0.0
11,0.0
2,3, 1, 3, 0, 2, 0.00,60.00,Saturday
7,-10.0
8,1.0
204,15.0
205,489840.3294461757
290,0.0
339,723.438299495003
340,0.0
416,0.0
441,0.0
687,-10.0
715,0.0
11,0.0
2,3, 1, 3, 0, 3, 0.00,60.00,Saturday
7,-9.6875
8,1.625
204,15.0
205,546847.548696181
290,0.0
339,704.4271513712695
340,0.0
416,0.0
441,0.0
687,-9.6875
715,0.0
11,0.0
2,3, 1, 3, 0, 4, 0.00,60.00,Saturday
7,-10.4375
8,2.625
204,14.999999999999998
205,629364.4995440019
290,0.0
339,686.0620190240029
340,0.0
416,0.0
441,0.0
687,-10.4375
715,0.0
11,0.0
2,3, 1, 3, 0, 5, 0.00,60.00,Saturday
7,-11.0
8,2.375
204,14.999999999999998
205,682927.6449487616
290,0.0
339,668.3978249308739
340,0.0
416,0.0
441,0.0
687,-11.0
715,0.0
11,0.0
2,3, 1, 3, 0, 6, 0.00,60.00,Saturday
7,-10.3125
8,2.625
204,15.0
205,720112.3756831107
290,0.0
339,652.0782011758084
340,0.0
416,0.0
441,0.0
687,-10.3125
715,0.0
11,0.0
2,3, 1, 3, 0, 7, 0.00,60.00,Saturday
7,-10.5875
8,2.375
204,15.0
205,766250.0606604633
290,0.0
339,636.5853119906155
340,0.0
416,0.0
441,0.0
687,-10.5875
715,0.0
11,0.0
2,3, 1, 3, 0, 8, 0.00,60.00,Saturday
7,-11.625
8,2.0
204,15.0
205,826614.8855865442
290,0.0
339,622.3540144073279
340,0.0
416,0.0
441,0.0
687,-11.625
715,0.0
11,0.0
2,3, 1, 3, 0, 9, 0.00,60.00,Saturday
7,-11.624999999999998
8,2.0
204,15.0
205,861709.3817139817
290,0.0
339,609.0298284266294
340,0.0
416,0.0
441,0.0
687,-11.624999999999998
715,0.0
11,0.0
2,3, 1, 3, 0,10, 0.00,60.00,Saturday
7,-11.15
8,3.25
204,15.0
205,869509.5618397623
290,0.0
339,596.2526817561328
340,0.0
416,0.0
441,0.0
687,-11.15
715,0.0
11,0.0
2,3, 1, 3, 0,11, 0.00,60.00,Saturday
7,-11.0
8,5.25
204,15.0
205,963504.7357654882
290,0.0
339,582.9965795689925
340,0.0
416,0.0
441,0.0
687,-11.0
715,0.0
11,0.0
2,3, 1, 3, 0,12, 0.00,60.00,Saturday
7,-10.5625
8,4.125
204,15.0
205,993855.6593012885
290,0.0
339,569.9047654656507
340,0.0
416,0.0
441,0.0
687,-10.5625
715,0.0
11,0.0
2,3, 1, 3, 0,13, 0.00,60.00,Saturday
7,-9.4875
8,3.625
204,15.0
205,1009870.9171596277
290,0.0
339,559.0039919137948
340,0.0
416,0.0
441,0.0
687,-9.4875
715,0.0
11,0.0
2,3, 1, 3, 0,14, 0.00,60.00,Saturday
7,-8.375
8,3.375
204,15.0
205,1024255.5116659557
290,0.0
339,548.823524236693
340,0.0
416,0.0
441,0.0
687,-8.375
715,0.0
11,0.0
2,3, 1, 3, 0,15, 0.00,60.00,Saturday
7,-7.375
8,3.625
204,15.000000000000002
205,1056401.9788359045
290,0.0
339,539.5017673002941
340,0.0
416,0.0
441,0.0
687,-7.375
715,0.0
11,0.0
2,3, 1, 3, 0,16, 0.00,60.00,Saturday
7,-6.375
8,4.625
204,15.0
205,1110580.425016109
290,0.0
339,530.3769098827197
340,0.0
416,0.0
441,0.0
687,-6.375
715,0.0
11,0.0
2,3, 1, 3, 0,17, 0.00,60.00,Saturday
7,-6.625
8,3.75
204,15.0
205,1140262.631512626
290,0.0
339,521.685204497805
340,0.0
416,0.0
441,0.0
687,-6.625
715,0.0
11,0.0
2,3, 1, 3, 0,18, 0.00,60.00,Saturday
7,-6.6875
8,3.625
204,15.0
205,1174997.4294810358
290,0.0
339,514.0653069320805
340,0.0
416,0.0
441,0.0
687,-6.6875
715,0.0
11,0.0
2,3, 1, 3, 0,19, 0.00,60.00,Saturday
7,-6.8125
8,4.0
204,15.0
205,1219847.637973005
290,0.0
339,506.7505108557665
340,0.0
416,0.0
441,0.0
687,-6.8125
715,0.0
11,0.0
2,3, 1, 3, 0,20, 0.00,60.00,Saturday
7,-6.375
8,4.625
204,15.0
205,1260449.4537385125
290,0.0
339,499.74817742168943
340,0.0
416,0.0
441,0.0
687,-6.375
715,0.0
11,0.0
2,3, 1, 3, 0,21, 0.00,60.00,Saturday
7,-6.0625
8,5.625
204,15.0
205,1318001.3444407363
290,0.0
339,492.79173702096386
340,0.0
416,0.0
441,0.0
687,-6.0625
715,0.0
11,0.0
2,3, 1, 3, 0,22, 0.00,60.00,Saturday
7,-6.0375
8,6.0
204,15.0
205,1363226.1806501679
290,0.0
339,485.930063275297
340,0.0
416,0.0
441,0.0
687,-6.0375
715,0.0
11,0.0
2,3, 1, 3, 0,23, 0.00,60.00,Saturday
7,-6.625
8,6.0
204,15.000000000000002
205,1411541.2062062607
290,0.0
339,479.52168240580073
340,0.0
416,0.0
441,0.0
687,-6.625
715,0.0
11,0.0
2,3, 1, 3, 0,24, 0.00,60.00,Saturday
7,-7.0625
8,5.375
204,15.0
205,1434758.2638972406
290,0.0
339,473.6933301555584
340,0.0
416,0.0
441,0.0
687,-7.0625
715,0.0
11,0.0
2,4, 1, 4, 0, 1, 0.00,60.00,Sunday
7,-7.6625
8,4.375
204,15.0
205,1449715.9983490407
290,0.0
339,468.6446133765563
340,0.0
416,0.0
441,0.0
687,-7.6625
715,0.0
11,0.0
2,4, 1, 4, 0, 2, 0.00,60.00,Sunday
7,-8.0
8,4.0
204,15.0
205,1478456.0732852402
290,0.0
339,464.18686823838624
340,0.0
416,0.0
441,0.0
687,-8.0
715,0.0
11,0.0
2,4, 1, 4, 0, 3, 0.00,60.00,Sunday
7,-7.75
8,4.625
204,15.0
205,1524753.2192802099
290,0.0
339,459.98610580648494
340,0.0
416,0.0
441,0.0
687,-7.75
715,0.0
11,0.0
2,4, 1, 4, 0, 4, 0.00,60.00,Sunday
7,-7.225
8,3.75
204,15.0
205,1524751.065374522
290,0.0
339,456.0091928310194
340,0.0
416,0.0
441,0.0
687,-7.225
715,0.0
11,0.0
2,4, 1, 4, 0, 5, 0.00,60.00,Sunday
7,-7.0
8,4.25
204,15.0
205,1567622.895548979
290,0.0
339,452.477388872829
340,0.0
416,0.0
441,0.0
687,-7.0
715,0.0
11,0.0
2,4, 1, 4, 0, 6, 0.00,60.00,Sunday
7,-6.812499999999999
8,4.375
204,15.0
205,1601069.565967048
290,0.0
339,448.98628653225126
340,0.0
416,0.0
441,0.0
687,-6.812499999999999
715,0.0
11,0.0
2,4, 1, 4, 0, 7, 0.00,60.00,Sunday
7,-6.8875
8,4.0
204,15.0
205,1626426.1760497151
290,0.0
339,445.8272103817692
340,0.0
416,0.0
441,0.0
687,-6.8875
715,0.0
11,0.0
2,4, 1, 4, 0, 8, 0.00,60.00,Sunday
7,-7.0
8,4.625
204,15.0
205,1680935.502270009
290,0.0
339,442.8508969637444
340,0.0
416,0.0
441,0.0
687,-7.0
715,0.0
11,0.0
2,4, 1, 4, 0, 9, 0.00,60.00,Sunday
7,-6.6875
8,5.0
204,15.0
205,1719053.9899517721
290,0.0
339,439.9399634379498
340,0.0
416,0.0
441,0.0
687,-6.6875
715,0.0
11,0.0
2,4, 1, 4, 0,10, 0.00,60.00,Sunday
7,-6.1875
8,6.25
204,15.0
205,1774002.6395851942
290,0.0
339,437.10599808879465
340,0.0
416,0.0
441,0.0
687,-6.1875
715,0.0
11,0.0
2,4, 1, 4, 0,11, 0.00,60.00,Sunday
7,-6.625
8,5.75
204,15.0
205,1788559.9119030964
290,0.0
339,434.28870467047176
340,0.0
416,0.0
441,0.0
687,-6.625
715,0.0
11,0.0
2,4, 1, 4, 0,12, 0.00,60.00,Sunday
7,-6.562500000000001
8,3.75
204,15.0
205,1759506.0849149846
290,0.0
339,431.97614477408615
340,0.0
416,0.0
441,0.0
687,-6.562500000000001
715,0.0
11,0.0
2,4, 1, 4, 0,13, 0.00,60.00,Sunday
7,-6.1125
8,4.25
204,15.0
205,1798153.1304262243
290,0.0
339,429.9815589415873
340,0.0
416,0.0
441,0.0
687,-6.1125
715,0.0
11,0.0
2,4, 1, 4, 0,14, 0.00,60.00,Sunday
7,-6.0
8,4.375
204,15.0
205,1833417.6603478459
290,0.0
339,428.0072021996864
340,0.0
416,0.0
441,0.0
687,-6.0
715,0.0
11,0.0
2,4, 1, 4, 0,15, 0.00,60.00,Sunday
7,-5.375
8,4.625
204,15.0
205,1863845.4152827947
290,0.0
339,426.1916832470444
340,0.0
416,0.0
441,0.0
687,-5.375
715,0.0
11,0.0
2,4, 1, 4, 0,16, 0.00,60.00,Sunday
7,-5.0
8,4.375
204,15.0
205,1890412.9179676329
290,0.0
339,424.46254019440164
340,0.0
416,0.0
441,0.0
687,-5.0
715,0.0
11,0.0
2,4, 1, 4, 0,17, 0.00,60.00,Sunday
7,-5.0
8,3.375
204,15.0
205,1906159.3135434687
290,0.0
339,422.930782729416
340,0.0
416,0.0
441,0.0
687,-5.0
715,0.0
11,0.0
2,4, 1, 4, 0,18, 0.00,60.00,Sunday
7,-5.125
8,3.0
204,15.0
205,1928040.315852582
290,0.0
339,421.561092991285
340,0.0
416,0.0
441,0.0
687,-5.125
715,0.0
11,0.0
2,4, 1, 4, 0,19, 0.00,60.00,Sunday
7,-5.075
8,2.375
204,15.0
205,1942776.9728389496
290,0.0
339,420.2952762336352
340,0.0
416,0.0
441,0.0
687,-5.075
715,0.0
11,0.0
2,4, 1, 4, 0,20, 0.00,60.00,Sunday
7,-5.0
8,2.0
204,15.0
205,1960802.5558541864
290,0.0
339,419.1383249422585
340,0.0
416,0.0
441,0.0
687,-5.0
715,0.0
11,0.0
2,4, 1, 4, 0,21, 0.00,60.00,Sunday
7,-4.5
8,3.25
204,15.0
205,1993935.763552428
290,0.0
339,418.03032935773297
340,0.0
416,0.0
441,0.0
687,-4.5
715,0.0
11,0.0
2,4, 1, 4, 0,22, 0.00,60.00,Sunday
7,-4.075
8,2.75
204,15.0
205,2002042.2066568797
290,0.0
339,416.94470348993354
340,0.0
416,0.0
441,0.0
687,-4.075
715,0.0
11,0.0
2,4, 1, 4, 0,23, 0.00,60.00,Sunday
7,-4.0
8,2.0
204,15.0
205,2016158.866833934
290,0.0
339,415.97862341551877
340,0.0
416,0.0
441,0.0
687,-4.0
715,0.0
11,0.0
2,4, 1, 4, 0,24, 0.00,60.00,Sunday
7,-3.875
8,1.375
204,15.0
205,2033075.1633344444
290,0.0
339,415.0842085623722
340,0.0
416,0.0
441,0.0
687,-3.875
715,0.0
11,0.0
2,5, 1, 5, 0, 1, 0.00,60.00,Monday
7,-4.55
8,3.5
204,15.0
205,2103553.2050661063
290,0.0
339,414.22382760659667
340,0.0
416,0.0
441,0.0
687,-4.55
715,0.0
11,0.0
2,5, 1, 5, 0, 2, 0.00,60.00,Monday
7,-5.0
8,3.75
204,15.0
205,2140103.896485344
290,0.0
339,413.3248431934555
340,0.0
416,0.0
441,0.0
687,-5.0
715,0.0
11,0.0
2,5, 1, 5, 0, 3, 0.00,60.00,Monday
7,-5.0
8,3.0
204,15.0
205,2150228.904894241
290,0.0
339,412.52747321190054
340,0.0
416,0.0
441,0.0
687,-5.0
715,0.0
11,0.0
2,5, 1, 5, 0, 4, 0.00,60.00,Monday
7,-5.625
8,3.625
204,15.0
205,2200762.3807079643
290,0.0
339,411.7785426145151
340,0.0
416,0.0
441,0.0
687,-5.625
715,0.0
11,0.0
2,5, 1, 5, 0, 5, 0.00,60.00,Monday
7,-6.0
8,3.375
204,15.0
205,2230265.0286419475
290,0.0
339,411.0557685159276
340,0.0
416,0.0
441,0.0
687,-6.0
715,0.0
11,0.0
2,5, 1, 5, 0, 6, 0.00,60.00,Monday
7,-6.749999999999999
8,3.0
204,15.0
205,2263582.1410143264
290,0.0
339,410.39787192981163
340,0.0
416,0.0
441,0.0
687,-6.749999999999999
715,0.0
11,0.0
2,5, 1, 5, 0, 7, 0.00,60.00,Monday
7,-7.7
8,3.0
204,15.000000000000002
205,2306261.607969667
290,0.0
339,409.7815179605109
340,0.0
416,0.0
441,0.0
687,-7.7
715,0.0
11,0.0
2,5, 1, 5, 0, 8, 0.00,60.00,Monday
7,-8.625
8,2.375
204,21.091514891952354
205,14293164.581628788
290,0.0
339,409.38729983285486
340,0.0
416,0.0
441,0.0
687,-8.625
715,0.0
11,0.0
2,5, 1, 5, 0, 9, 0.00,60.00,Monday
7,-9.125
8,2.0
204,21.000000691645745
205,12659789.90193559
290,0.0
339,409.00893326583616
340,0.0
416,0.0
441,0.0
687,-9.125
715,0.0
11,0.0
2,5, 1, 5, 0,10, 0.00,60.00,Monday
7,-9.7
8,2.0
204,21.000000000108745
205,7291484.8695092
290,0.0
339,539.8609027893381
340,4725360.618887929
416,18744.036887998802
441,18744.036887998802
687,16.917650246709925
715,0.7796467891281375
11,6816288.073775997
2,5, 1, 5, 0,11, 0.00,60.00,Monday
7,-10.0
8,2.0
204,21.00000000000001
205,5920678.0535427565
290,0.0
339,713.172396250589
340,4731205.058164824
416,18744.036887998802
441,18744.036887998802
687,16.654616436435905
715,0.7803841505583612
11,8346288.073775997
2,5, 1, 5, 0,12, 0.00,60.00,Monday
7,-9.8125
8,2.625
204,21.0
205,5677687.390197642
290,0.0
339,801.3685438422335
340,4686742.446741242
416,18744.036887998802
441,18744.036887998802
687,16.596349132040427
715,0.7774330666873269
11,8346288.073775997
2,5, 1, 5, 0,13, 0.00,60.00,Monday
7,-9.8875
8,2.375
204,20.999999999999993
205,5475317.961181153
290,0.0
339,847.0747046198821
340,4684947.755183285
416,18744.036887998802
441,18744.036887998802
687,16.51462435897507
715,0.7784793776222049
11,8346288.073775997
2,5, 1, 5, 0,14, 0.00,60.00,Monday
7,-10.0
8,2.0
204,21.000000000000007
205,11047483.93072061
290,0.0
339,756.4453351542547
340,4694590.82606193
416,18744.036887998802
441,18744.036887998802
687,16.457641816056935
715,0.7801280283446088
11,256368.07377599765
2,5, 1, 5, 0,15, 0.00,60.00,Monday
7,-10.0
8,2.0
204,21.0
205,6315956.950625978
290,0.0
339,737.5323984913754
340,4701397.318611649
416,18744.036887998802
441,18744.036887998802
687,16.495846440649736
715,0.7802231453831306
11,6816288.073775997
2,5, 1, 5, 0,16, 0.00,60.00,Monday
7,-10.0
8,2.0
204,21.0
205,5152032.421692478
290,0.0
339,816.5415672542995
340,4695907.2052955115
416,18744.036887998802
441,18744.036887998802
687,16.468020736192187
715,0.7801452105514382
11,8346288.073775997
2,5, 1, 5, 0,17, 0.00,60.00,Monday
7,-11.25
8,2.0
204,21.0
205,5054297.898778816
290,0.0
339,854.8205602810879
340,4895564.239467526
416,18744.036887998802
441,18744.036887998802
687,16.344243900929445
715,0.7801615786833722
11,8346288.073775997
2,5, 1, 5, 0,18, 0.00,60.00,Monday
7,-11.437500000000002
8,2.0
204,21.0
205,4950215.6155745
290,0.0
339,874.7962383702602
340,4932989.630591279
416,18744.036887998802
441,18744.036887998802
687,16.36371857175859
715,0.7754984221354052
11,8346288.073775997
2,5, 1, 5, 0,19, 0.00,60.00,Monday
7,-11.6625
8,2.0
204,21.0
205,10813076.769901758
290,0.0
339,869.7150060510685
340,0.0
416,0.0
441,0.0
687,-11.6625
715,0.0
11,0.0
2,5, 1, 5, 0,20, 0.00,60.00,Monday
7,-12.625
8,3.25
204,16.09887816135954
205,339565.8931696783
290,0.0
339,852.6174509818691
340,0.0
416,0.0
441,0.0
687,-12.625000000000002
715,0.0
11,0.0
2,5, 1, 5, 0,21, 0.00,60.00,Monday
7,-12.5625
8,2.75
204,15.000000046729024
205,1268431.531688075
290,0.0
339,832.1237199610483
340,0.0
416,0.0
441,0.0
687,-12.5625
715,0.0
11,0.0
2,5, 1, 5, 0,22, 0.00,60.00,Monday
7,-13.9875
8,0.75
204,15.0
205,1467874.1607319857
290,0.0
339,806.3536237872962
340,0.0
416,0.0
441,0.0
687,-13.9875
715,0.0
11,0.0
2,5, 1, 5, 0,23, 0.00,60.00,Monday
7,-15.625
8,0.0
204,15.0
205,1633321.0860975315
290,0.0
339,782.9665518220946
340,0.0
416,0.0
441,0.0
687,-15.625
715,0.0
11,0.0
2,5, 1, 5, 0,24, 0.00,60.00,Monday
7,-14.625
8,1.25
204,15.000000000000002
205,1740909.6062005674
290,0.0
339,760.8891723868309
340,0.0
416,0.0
441,0.0
687,-14.625
715,0.0
11,0.0
2,6, 1, 6, 0, 1, 0.00,60.00,Tuesday
7,-15.8
8,0.75
204,15.0
205,1854600.384681033
290,0.0
339,739.9053883761186
340,0.0
416,0.0
441,0.0
687,-15.8
715,0.0
11,0.0
2,6, 1, 6, 0, 2, 0.00,60.00,Tuesday
7,-17.0
8,0.0
204,15.0
205,1956604.6727311085
290,0.0
339,720.3942731596703
340,0.0
416,0.0
441,0.0
687,-17.0
715,0.0
11,0.0
2,6, 1, 6, 0, 3, 0.00,60.00,Tuesday
7,-15.687499999999998
8,0.625
204,15.0
205,2016062.2528414088
290,0.0
339,702.0637136612006
340,0.0
416,0.0
441,0.0
687,-15.687499999999998
715,0.0
11,0.0
2,6, 1, 6, 0, 4, 0.00,60.00,Tuesday
7,-17.4625
8,0.375
204,15.0
205,2119400.0307208598
290,0.0
339,684.7814371205451
340,0.0
416,0.0
441,0.0
687,-17.4625
715,0.0
11,0.0
2,6, 1, 6, 0, 5, 0.00,60.00,Tuesday
7,-19.0
8,0.0
204,15.0
205,2214641.920751325
290,0.0
339,668.4546558688727
340,0.0
416,0.0
441,0.0
687,-19.0
715,0.0
11,0.0
2,6, 1, 6, 0, 6, 0.00,60.00,Tuesday
7,-17.4375
8,0.625
204,15.0
205,2257130.043976606
290,0.0
339,653.0857269431227
340,0.0
416,0.0
441,0.0
687,-17.4375
715,0.0
11,0.0
2,6, 1, 6, 0, 7, 0.00,60.00,Tuesday
7,-18.6875
8,0.375
204,15.0
205,2341854.8152951202
290,0.0
339,638.6117565695541
340,0.0
416,0.0
441,0.0
687,-18.6875
715,0.0
11,0.0
2,6, 1, 6, 0, 8, 0.00,60.00,Tuesday
7,-20.625
8,0.0
204,21.092217713078842
205,14313990.394252772
290,0.0
339,629.2261055475526
340,0.0
416,0.0
441,0.0
687,-20.625
715,0.0
11,0.0
2,6, 1, 6, 0, 9, 0.00,60.00,Tuesday
7,-19.125
8,0.625
204,21.000000714491474
205,12714713.938074477
290,0.0
339,619.9320199536494
340,0.0
416,0.0
441,0.0
687,-19.125
715,0.0
11,0.0
2,6, 1, 6, 0,10, 0.00,60.00,Tuesday
7,-19.25
8,0.375
204,21.00000000011301
205,7316291.276834374
290,0.0
339,690.9479651999688
340,6301780.057313382
416,18744.036887998802
441,18744.036887998802
687,16.27508075920135
715,0.7762863710424835
11,6816288.073775997
2,6, 1, 6, 0,11, 0.00,60.00,Tuesday
7,-20.0
8,0.0
204,21.000000000000014
205,6002622.5501365885
290,0.0
339,790.047712091307
340,6356897.720372357
416,18744.036887998802
441,18744.036887998802
687,15.83755897416679
715,0.7807879788107581
11,8346288.073775997
2,6, 1, 6, 0,12, 0.00,60.00,Tuesday
7,-16.4375
8,0.625
204,21.0
205,5765243.605073726
290,0.0
339,841.3768787698602
340,5768944.197756471
416,18744.036887998802
441,18744.036887998802
687,16.080409863871914
715,0.7723034915314899
11,8346288.073775997
2,6, 1, 6, 0,13, 0.00,60.00,Tuesday
7,-15.3625
8,0.375
204,21.0
205,5596904.61436097
290,0.0
339,869.5542889255275
340,5577954.055159267
416,18744.036887998802
441,18744.036887998802
687,16.07769335007628
715,0.7754556707900078
11,8346288.073775997
2,6, 1, 6, 0,14, 0.00,60.00,Tuesday
7,-15.375
8,0.0
204,21.0
205,11208168.738620795
290,0.0
339,769.3399338993968
340,5569210.757059882
416,18744.036887998802
441,18744.036887998802
687,16.01883305305056
715,0.7803633171186752
11,256368.07377599765
2,6, 1, 6, 0,15, 0.00,60.00,Tuesday
7,-11.499999999999998
8,1.25
204,21.0
205,6444265.149777829
290,0.0
339,745.7059728859343
340,4957390.617326403
416,18744.036887998802
441,18744.036887998802
687,16.4461772647913
715,0.7726946847788907
11,6816288.073775997
2,6, 1, 6, 0,16, 0.00,60.00,Tuesday
7,-12.275
8,1.375
204,21.0
205,5320796.396695398
290,0.0
339,822.4617460112203
340,5074507.126121089
416,18744.036887998802
441,18744.036887998802
687,16.330521696866462
715,0.7756895994559403
11,8346288.073775997
2,6, 1, 6, 0,17, 0.00,60.00,Tuesday
7,-14.625
8,0.375
204,21.0
205,5253812.899733021
290,0.0
339,858.1227071027656
340,5449392.138843833
416,18744.036887998802
441,18744.036887998802
687,16.091353998392865
715,0.7803215038737041
11,8346288.073775997
2,6, 1, 6, 0,18, 0.00,60.00,Tuesday
7,-14.125000000000002
8,0.625
204,20.999999999999996
205,5154319.644963065
290,0.0
339,877.1520050762124
340,5384011.821208082
416,18744.036887998802
441,18744.036887998802
687,16.219854662385664
715,0.7725087333048407
11,8346288.073775997
2,6, 1, 6, 0,19, 0.00,60.00,Tuesday
7,-15.1
8,0.375
204,21.0
205,11040494.48401648
290,0.0
339,872.4626792879284
340,0.0
416,0.0
441,0.0
687,-15.1
715,0.0
11,0.0
2,6, 1, 6, 0,20, 0.00,60.00,Tuesday
7,-17.25
8,0.0
204,16.041562871681926
205,452574.93526310904
290,0.0
339,855.4548548712488
340,0.0
416,0.0
441,0.0
687,-17.25
715,0.0
11,0.0
2,6, 1, 6, 0,21, 0.00,60.00,Tuesday
7,-16.625
8,0.625
204,15.000000006144514
205,1419452.4465554962
290,0.0
339,832.8858752869355
340,0.0
416,0.0
441,0.0
687,-16.625
715,0.0
11,0.0
2,6, 1, 6, 0,22, 0.00,60.00,Tuesday
7,-17.8
8,0.375
204,15.0
205,1670943.7959984145
290,0.0
339,807.5752607679764
340,0.0
416,0.0
441,0.0
687,-17.8
715,0.0
11,0.0
2,6, 1, 6, 0,23, 0.00,60.00,Tuesday
7,-20.25
8,0.0
204,15.0
205,1864804.9214518035
290,0.0
339,783.9012777418795
340,0.0
416,0.0
441,0.0
687,-20.25
715,0.0
11,0.0
2,6, 1, 6, 0,24, 0.00,60.00,Tuesday
7,-18.5
8,1.25
204,15.0
205,1965679.1951994905
290,0.0
339,761.5224309484172
340,0.0
416,0.0
441,0.0
687,-18.5
715,0.0
11,0.0
2,7, 1, 7, 0, 1, 0.00,60.00,Wednesday
7,-18.875
8,0.75
204,15.0
205,2070681.9616925372
290,0.0
339,740.3517795777623
340,0.0
416,0.0
441,0.0
687,-18.875
715,0.0
11,0.0
2,7, 1, 7, 0, 2, 0.00,60.00,Wednesday
7,-20.625
8,0.0
204,15.0
205,2190828.089408084
290,0.0
339,720.6859941404671
340,0.0
416,0.0
441,0.0
687,-20.625
715,0.0
11,0.0
2,7, 1, 7, 0, 3, 0.00,60.00,Wednesday
7,-18.5
8,1.25
204,15.000000000000002
205,2248743.2144128657
290,0.0
339,702.1399281311602
340,0.0
416,0.0
441,0.0
687,-18.5
715,0.0
11,0.0
2,7, 1, 7, 0, 4, 0.00,60.00,Wednesday
7,-19.5
8,0.75
204,14.999999999999998
205,2341351.2717170957
290,0.0
339,684.5630476307866
340,0.0
416,0.0
441,0.0
687,-19.5
715,0.0
11,0.0
2,7, 1, 7, 0, 5, 0.00,60.00,Wednesday
7,-19.125
8,0.0
204,15.0
205,2400934.886397221
290,0.0
339,668.2340484747438
340,0.0
416,0.0
441,0.0
687,-19.125
715,0.0
11,0.0
2,7, 1, 7, 0, 6, 0.00,60.00,Wednesday
7,-18.4375
8,1.875
204,15.0
205,2488032.7820474375
290,0.0
339,652.7991756498046
340,0.0
416,0.0
441,0.0
687,-18.4375
715,0.0
11,0.0
2,7, 1, 7, 0, 7, 0.00,60.00,Wednesday
7,-18.2625
8,1.125
204,15.0
205,2538596.352953779
290,0.0
339,637.8453298582007
340,0.0
416,0.0
441,0.0
687,-18.2625
715,0.0
11,0.0
2,7, 1, 7, 0, 8, 0.00,60.00,Wednesday
7,-18.625
8,0.0
204,21.088781840358898
205,14595739.629085522
290,0.0
339,628.513843456222
340,0.0
416,0.0
441,0.0
687,-18.625
715,0.0