Program Version,EnergyPlus, Version 25.2.0-cf7368216c, YMD=2026.04.20 11:08
1,5,Environment Title[],Latitude[deg],Longitude[deg],Time Zone[],Elevation[m]
2,8,Day of Simulation[],Month[],Day of Month[],DST Indicator[1=yes 0=no],Hour[],StartMinute[],EndMinute[],DayType
3,5,Cumulative Day of Simulation[],Month[],Day of Month[],DST Indicator[1=yes 0=no],DayType  ! When Daily Report Variables Requested
4,2,Cumulative Days of Simulation[],Month[]  ! When Monthly Report Variables Requested
5,1,Cumulative Days of Simulation[] ! When Run Period Report Variables Requested
6,1,Calendar Year of Simulation[] ! When Annual Report Variables Requested
7,1,Environment,Site Outdoor Air Drybulb Temperature [C] !Hourly
8,1,Environment,Site Wind Speed [m/s] !Hourly
204,1,MAINZONE,Zone Mean Air Temperature [C] !Hourly
205,1,MAINZONE,Zone Infiltration Standard Density Volume Flow Rate [m3/s] !Hourly
206,1,MAINZONE,Zone Air System Sensible Heating Energy [J] !Hourly
291,1,MAINZONE,Zone Air System Sensible Cooling Energy [J] !Hourly
340,1,MAINZONE,Zone Air CO2 Concentration [ppm] !Hourly
341,1,MAINZONE,Zone Air Generic Air Contaminant Concentration [ppm] !Hourly
342,1,LAB_HX,Heat Exchanger Sensible Heating Energy [J] !Hourly
418,1,SUPPLY_FAN,Fan Electricity Energy [J] !Hourly
443,1,EXHAUST_FAN,Fan Electricity Energy [J] !Hourly
689,1,ERV_SA_OUTLET,System Node Temperature [C] !Hourly
11,1,Electricity:Facility [J] !Hourly
End of Data Dictionary
1,ANNUAL,  50.39,  30.54,   2.00, 178.60
2,1, 1, 1, 0, 1, 0.00,60.00,Thursday
7,-7.05
8,2.375
204,20.0
205,0.003474459823225632
206,1036720.2975110146
291,0.0
340,403.4472590100804
341,295.03671638982166
342,4100370.242349287
418,18744.036887998802
443,18744.036887998802
689,16.046409654627755
11,37488.073775997604
2,1, 1, 1, 0, 2, 0.00,60.00,Thursday
7,-9.625
8,1.375
204,20.0
205,0.003386163833568519
206,1102238.7248643846
291,0.0
340,401.58413557713516
341,135.5796466020165
342,4488113.795769166
418,18744.036887998802
443,18744.036887998802
689,15.660151755641419
11,37488.073775997604
2,1, 1, 1, 0, 3, 0.00,60.00,Thursday
7,-9.0625
8,1.625
204,20.0
205,0.0034248346647535585
206,1124980.9980405434
291,0.0
340,400.7307216063891
341,62.53945596473757
342,4402855.006653078
418,18744.036887998802
443,18744.036887998802
689,15.744510177699558
11,37488.073775997604
2,1, 1, 1, 0, 4, 0.00,60.00,Thursday
7,-10.0625
8,0.75
204,20.0
205,0.0033700908022979755
206,1158588.530645196
291,0.0
340,400.3381325290977
341,28.939372024467353
342,4552898.592074502
418,18744.036887998802
443,18744.036887998802
689,15.594503795453392
11,37488.073775997604
2,1, 1, 1, 0, 5, 0.00,60.00,Thursday
7,-11.0
8,0.0
204,20.0
205,0.003340995525512895
206,1192468.7534258338
291,0.0
340,400.1563424133644
341,13.380703937680297
342,4694486.929329993
418,18744.036887998802
443,18744.036887998802
689,15.453868473637035
11,37488.073775997604
2,1, 1, 1, 0, 6, 0.00,60.00,Thursday
7,-9.625
8,1.25
204,20.0
205,0.003401284205940515
206,1199903.2501526135
291,0.0
340,400.0723261232375
341,6.190095324575157
342,4487375.779410874
418,18744.036887998802
443,18744.036887998802
689,15.660103247551891
11,37488.073775997604
2,1, 1, 1, 0, 7, 0.00,60.00,Thursday
7,-9.55
8,1.375
204,20.0
205,0.0033965019115414687
206,1218603.5789656944
291,0.0
340,400.0334966697846
341,2.866842155244797
342,4475759.056009987
418,18744.036887998802
443,18744.036887998802
689,15.671347862644119
11,37488.073775997604
2,1, 1, 1, 0, 8, 0.00,60.00,Thursday
7,-10.625
8,1.0
204,20.0
205,0.0033688019311711335
206,1252392.3200499597
291,0.0
340,400.01549242915524
341,1.3259332726206476
342,4637504.789978161
418,18744.036887998802
443,18744.036887998802
689,15.51009510221167
11,37488.073775997604
2,1, 1, 1, 0, 9, 0.00,60.00,Thursday
7,-8.75
8,1.625
204,19.999999999999996
205,0.0034125437045371193
206,1232154.1273696176
291,0.0
340,400.00716964993705
341,0.6136208408190249
342,4355609.360881848
418,18744.036887998802
443,18744.036887998802
689,15.791331149159952
11,37488.073775997604
2,1, 1, 1, 0,10, 0.00,60.00,Thursday
7,-9.025
8,1.375
204,21.321167032262903
205,0.003386779779376072
206,0.0
291,833612.2438570764
340,509.9579080897872
341,0.32117373446969555
342,4568514.412014616
418,18744.036887998802
443,18744.036887998802
689,16.71307228656538
11,6816288.073775997
2,1, 1, 1, 0,11, 0.00,60.00,Thursday
7,-8.125
8,1.625
204,22.286104168233866
205,0.0033910006691969695
206,0.0
291,817546.2228152705
340,699.4950033122782
341,0.16311115250396793
342,4596731.039668012
418,18744.036887998802
443,18744.036887998802
689,17.76587362087116
11,8346288.073775997
2,1, 1, 1, 0,12, 0.00,60.00,Thursday
7,-5.000000000000001
8,2.625
204,22.44507779182275
205,0.003496051291382381
206,0.0
291,730920.6339211677
340,812.3808547693236
341,0.06952464729743789
342,4154888.244057383
418,18744.036887998802
443,18744.036887998802
689,18.403298182236508
11,8346288.073775997
2,1, 1, 1, 0,13, 0.00,60.00,Thursday
7,-3.925
8,3.625
204,22.531585499136433
205,0.003675315484011584
206,0.0
291,700891.3366174488
340,859.494755137368
341,0.030057341669981936
342,4008797.2331217364
418,18744.036887998802
443,18744.036887998802
689,18.655619659977532
11,8346288.073775997
2,1, 1, 1, 0,14, 0.00,60.00,Thursday
7,-2.75
8,4.0
204,20.248198813374422
205,0.0037404328003496296
206,384161.6307895157
291,172838.67165437288
340,769.3108768000217
341,0.016454157598915237
342,3513903.2493992774
418,18744.036887998802
443,18744.036887998802
689,17.054128556144207
11,256368.07377599765
2,1, 1, 1, 0,15, 0.00,60.00,Thursday
7,-0.8750000000000001
8,4.625
204,21.646804255155555
205,0.0038865072916282727
206,0.0
291,630731.0138548615
340,725.5714513737953
341,0.009032678777986889
342,3378844.2685621153
418,18744.036887998802
443,18744.036887998802
689,18.15572296270494
11,6816288.073775997
2,1, 1, 1, 0,16, 0.00,60.00,Thursday
7,-0.075
8,4.375
204,22.61694493708108
205,0.0038020810604345264
206,0.0
291,605036.8350503308
340,807.1933609719151
341,0.004553998838861155
342,3436771.273491772
418,18744.036887998802
443,18744.036887998802
689,19.26852189092907
11,8346288.073775997
2,1, 1, 1, 0,17, 0.00,60.00,Thursday
7,-1.25
8,4.625
204,22.668779338618627
205,0.003889464334821533
206,0.0
291,629862.4959798779
340,855.9990116969758
341,0.0019269212264621763
342,3628109.9576000813
418,18744.036887998802
443,18744.036887998802
689,19.183879549287784
11,8346288.073775997
2,1, 1, 1, 0,18, 0.00,60.00,Thursday
7,-2.0625
8,3.75
204,22.70383545065216
205,0.0036827599286197226
206,0.0
291,655224.9999639434
340,876.2238143213114
341,0.0008264624865735667
342,3753016.146696767
418,18744.036887998802
443,18744.036887998802
689,19.078883305988825
11,8346288.073775997
2,1, 1, 1, 0,19, 0.00,60.00,Thursday
7,-3.9125
8,3.0
204,20.28701367195218
205,0.003536996234808504
206,413831.88929940027
291,209238.42952090665
340,765.3099966649266
341,0.00045102511179295567
342,3695679.815287682
418,18744.036887998802
443,18744.036887998802
689,16.908929720647567
11,37488.073775997604
2,1, 1, 1, 0,20, 0.00,60.00,Thursday
7,-5.625
8,2.375
204,20.00000002397543
205,0.0034540590055991455
206,772436.6177833736
291,0.0
340,576.240146216558
341,0.00021572333090763782
342,3884276.528062819
418,18744.036887998802
443,18744.036887998802
689,16.2602196273233
11,37488.073775997604
2,1, 1, 1, 0,21, 0.00,60.00,Thursday
7,-5.0
8,2.625
204,20.000000000001165
205,0.003489003758008023
206,864590.1611470308
291,0.0
340,479.85164208522554
341,0.00009780300121434236
342,3790456.8306626594
418,18744.036887998802
443,18744.036887998802
689,16.35395963175986
11,37488.073775997604
2,1, 1, 1, 0,22, 0.00,60.00,Thursday
7,-4.15
8,3.0
204,20.0
205,0.0035400789580765204
206,912391.133856752
291,0.0
340,436.39872170770593
341,0.00004457929308796405
342,3662498.8132464625
418,18744.036887998802
443,18744.036887998802
689,16.48144426237246
11,37488.073775997604
2,1, 1, 1, 0,23, 0.00,60.00,Thursday
7,-4.0
8,2.375
204,20.0
205,0.0034322063403679965
206,943260.4099026183
291,0.0
340,416.58782793386945
341,0.000020315998772896268
342,3639803.8599513387
418,18744.036887998802
443,18744.036887998802
689,16.503931558742178
11,37488.073775997604
2,1, 1, 1, 0,24, 0.00,60.00,Thursday
7,-3.875
8,2.625
204,20.0
205,0.00347374885523138
206,984677.9515987424
291,0.0
340,407.57717313315095
341,0.000009280166044587055
342,3621446.64083251
418,18744.036887998802
443,18744.036887998802
689,16.522665529512427
11,37488.073775997604
2,2, 1, 2, 0, 1, 0.00,60.00,Friday
7,-3.925
8,3.625
204,20.0
205,0.00366931427649314
206,1039366.4593821869
291,0.0
340,403.4817117636018
341,0.000004264237251694032
342,3629602.43079153
418,15864.2432616142
443,15864.2432616142
689,16.50416979326255
11,31728.4865232284
2,2, 1, 2, 0, 2, 0.00,60.00,Friday
7,-4.0
8,3.375
204,20.0
205,0.003612405598440292
206,1063275.15216026
291,0.0
340,401.8615394067987
341,0.000002279926143162347
342,3641102.768720114
418,4861.830076253407
443,4861.830076253407
689,16.445632170587118
11,9723.660152506814
2,2, 1, 2, 0, 3, 0.00,60.00,Friday
7,-4.0
8,3.625
204,20.0
205,0.003667572880541937
206,1095405.0553700603
291,0.0
340,401.2284285809501
341,0.0000015045217021352272
342,3641102.7687201137
418,2412.3324171999047
443,2412.3324171999047
689,16.432822385099964
11,4824.6648343998095
2,2, 1, 2, 0, 4, 0.00,60.00,Friday
7,-4.0
8,3.375
204,20.0
205,0.003611610840682202
206,1113486.3806846244
291,0.0
340,400.8848389560181
341,0.0000010837092468094928
342,3642031.0955001223
418,1720.3988863873278
443,1720.3988863873278
689,16.430034904134878
11,3440.7977727746556
2,2, 1, 2, 0, 5, 0.00,60.00,Friday
7,-4.0
8,4.875
204,20.0
205,0.0040225127514351726
206,1179699.7895541736
291,0.0
340,400.66987916702396
341,8.204365807034652e-7
342,3640847.7069176044
418,1429.8091894827116
443,1429.8091894827116
689,16.43007199924095
11,2859.6183789654233
2,2, 1, 2, 0, 6, 0.00,60.00,Friday
7,-4.375
8,5.375
204,20.0
205,0.0041836889875563376
206,1225420.651652474
291,0.0
340,400.5198961027397
341,6.367443590575477e-7
342,3695277.0241921395
418,1275.1878617984078
443,1275.1878617984078
689,16.37493028015108
11,2550.3757235968155
2,2, 1, 2, 0, 7, 0.00,60.00,Friday
7,-6.1
8,5.0
204,20.0
205,0.004081394272185991
206,1270668.5837252215
291,0.0
340,400.4136727389935
341,5.066469659263994e-7
342,3954474.8585943347
418,1184.0587948655677
443,1184.0587948655677
689,16.117699246505698
11,2368.1175897311355
2,2, 1, 2, 0, 8, 0.00,60.00,Friday
7,-7.625
8,3.75
204,20.0
205,0.003758236916686517
206,1281534.392839806
291,0.0
340,400.33536012633533
341,4.1073335147469797e-7
342,4184756.1766938
418,1125.6167588526719
443,1125.6167588526719
689,15.890580144299996
11,2251.2335177053437
2,2, 1, 2, 0, 9, 0.00,60.00,Friday
7,-7.562500000000001
8,4.25
204,20.0
205,0.0039011629868561854
206,1306958.726468552
291,0.0
340,400.27625850543916
341,3.383484585729382e-7
342,4176010.153718971
418,1085.9669775537895
443,1085.9669775537895
689,15.901541761343655
11,2171.933955107579
2,2, 1, 2, 0,10, 0.00,60.00,Friday
7,-8.3625
8,4.375
204,21.578528735299614
205,0.0039333874368218
206,0.0
291,198057.092407458
340,525.4227931217592
341,2.8711342376605994e-7
342,4500590.186903423
418,1371.3510031412334
443,1371.3510031412334
689,16.92170404989512
11,6781542.702006282
2,2, 1, 2, 0,11, 0.00,60.00,Friday
7,-9.0
8,4.625
204,22.377395446021264
205,0.0040060276971818215
206,0.0
291,531986.66956072
340,767.1351122513928
341,2.0442736301160888e-7
342,4751749.626462072
418,6442.6901394150545
443,6442.6901394150545
689,17.719240438037314
11,8321685.3802788295
2,2, 1, 2, 0,12, 0.00,60.00,Friday
7,-8.0
8,3.75
204,22.366347418005457
205,0.0037835523073163216
206,0.0
291,763937.6704950653
340,873.4496185865269
341,1.0111038264585805e-7
342,4597175.998741175
418,15968.442726957664
443,15968.442726957664
689,17.890894598019344
11,8340736.885453915
2,2, 1, 2, 0,13, 0.00,60.00,Friday
7,-7.775
8,3.625
204,22.424441544046047
205,0.0037355895229905334
206,0.0
291,800243.8127959447
340,889.70754743965
341,4.41819835928799e-8
342,4572954.45309652
418,18568.749723341094
443,18568.749723341094
689,17.991418993638185
11,8345937.499446683
2,2, 1, 2, 0,14, 0.00,60.00,Friday
7,-7.375
8,3.375
204,20.21390179661457
205,0.0036628921835774584
206,507282.14074441086
291,187039.94206933453
340,795.979173324704
341,2.481905103195348e-8
342,4203327.364640832
418,12473.69361192049
443,12473.69361192049
689,16.296165844035563
11,243827.38722384098
2,2, 1, 2, 0,15, 0.00,60.00,Friday
7,-6.4375
8,3.0
204,21.623826825022046
205,0.0035899957614894287
206,0.0
291,589714.8157046911
340,776.0347368362884
341,1.5489174351749714e-8
342,4211998.929002529
418,8742.296150840266
443,8742.296150840266
689,17.268537469084333
11,6796284.592301682
2,2, 1, 2, 0,16, 0.00,60.00,Friday
7,-6.6625
8,2.375
204,22.512914984685086
205,0.0034799662402284727
206,0.0
291,709253.2783058821
340,863.0033011538869
341,8.674206503207057e-9
342,4414290.4850721955
418,14509.162802928673
443,14509.162802928673
689,18.195782109264698
11,8337818.325605857
2,2, 1, 2, 0,17, 0.00,60.00,Friday
7,-8.25
8,2.0
204,22.520034390425103
205,0.003435526978050565
206,0.0
291,812016.0633542618
340,889.5022928276112
341,3.821499677042629e-9
342,4659494.911017837
418,18478.85721715456
443,18478.85721715456
689,18.007844126157455
11,8345757.714434309
2,2, 1, 2, 0,18, 0.00,60.00,Friday
7,-8.375
8,2.0
204,22.554718915106932
205,0.0034553968954476643
206,0.0
291,822513.6263611884
340,893.3618640831673
341,1.650529997674539e-9
342,4680423.240610748
418,18744.036887998802
443,18744.036887998802
689,18.006377236949213
11,8346288.073775997
2,2, 1, 2, 0,19, 0.00,60.00,Friday
7,-9.25
8,2.0
204,20.235145373938067
205,0.0034595698239406137
206,564110.2197744349
291,193560.36086126315
340,788.5108036773911
341,9.33966802670564e-10
342,4490750.302622343
418,12163.952237340494
443,12163.952237340494
689,16.041988600753164
11,24327.90447468099
2,2, 1, 2, 0,20, 0.00,60.00,Friday
7,-10.0
8,2.0
204,20.00000002722854
205,0.0034583245007173786
206,873984.3629034134
291,0.0
340,631.9902889049014
341,5.529998130560185e-10
342,4542076.542814275
418,4186.001754490796
443,4186.001754490796
689,15.542150282621506
11,8372.003508981592
2,2, 1, 2, 0,21, 0.00,60.00,Friday
7,-9.3125
8,2.0
204,20.000000000000142
205,0.003467042938136181
206,955107.780554843
291,0.0
340,558.171259860652
341,3.7720657205436003e-10
342,4438961.989310673
418,1958.7335479050935
443,1958.7335479050935
689,15.633998453061327
11,3917.467095810187
2,2, 1, 2, 0,22, 0.00,60.00,Friday
7,-9.5875
8,1.375
204,20.0
205,0.0033978345512962515
206,1009191.4423919402
291,0.0
340,519.3080281618521
341,2.8452004629620035e-10
342,4480330.831519306
418,1417.0285150445677
443,1417.0285150445677
689,15.592119529598683
11,2834.0570300891354
2,2, 1, 2, 0,23, 0.00,60.00,Friday
7,-10.0
8,1.0
204,20.0
205,0.003361274443776734
206,1057720.61241076
291,0.0
340,494.7981776572249
341,2.2607029291217168e-10
342,4542385.6866506245
418,1197.5536982549445
443,1197.5536982549445
689,15.53253279516947
11,2395.107396509889
2,2, 1, 2, 0,24, 0.00,60.00,Friday
7,-9.25
8,1.0
204,20.0
205,0.0033678089976245016
206,1085464.9987540175
291,0.0
340,477.9312873461607
341,1.8584691192847562e-10
342,4429382.629560343
418,1084.7629417662554
443,1084.7629417662554
689,15.648601250606328
11,2169.5258835325108
2,3, 1, 3, 0, 1, 0.00,60.00,Saturday
7,-9.55
8,1.0
204,20.0
205,0.0033651997825193047
206,1125742.9483504472
291,0.0
340,465.6244386599213
341,1.564981112710438e-10
342,4474584.110403834
418,1017.3258343217001
443,1017.3258343217001
689,15.60789868343623
11,2034.6516686434002
2,3, 1, 3, 0, 2, 0.00,60.00,Saturday
7,-10.0
8,1.0
204,20.0
205,0.003361274443776734
206,1164244.0188583906
291,0.0
340,456.2040487157619
341,1.3403280316525934e-10
342,4542385.6866506245
418,972.3505923499127
443,972.3505923499127
689,15.545237004423578
11,1944.7011846998255
2,3, 1, 3, 0, 3, 0.00,60.00,Saturday
7,-9.6875
8,1.625
204,20.0
205,0.0034277081057781165
206,1198436.975001648
291,0.0
340,448.76607016170226
341,1.1629505760662651e-10
342,4495051.550952523
418,942.6185075264639
443,942.6185075264639
689,15.596870087105085
11,1885.2370150529277
2,3, 1, 3, 0, 4, 0.00,60.00,Saturday
7,-10.4375
8,2.625
204,20.0
205,0.0035694245187956413
206,1260307.2601852673
291,0.0
340,442.5234335795623
341,1.0140790802640019e-10
342,4608046.159025998
418,938.1980232358993
443,938.1980232358993
689,15.485206463389865
11,1876.3960464717986
2,3, 1, 3, 0, 5, 0.00,60.00,Saturday
7,-11.0
8,2.375
204,20.0
205,0.003527322860341697
206,1290746.0338058828
291,0.0
340,437.02703200564565
341,8.830034501079732e-11
342,4692879.194115752
418,938.1932272604945
443,938.1932272604945
689,15.400823041485987
11,1876.386454520989
2,3, 1, 3, 0, 6, 0.00,60.00,Saturday
7,-10.3125
8,2.625
204,20.0
205,0.0035729456823440716
206,1307878.800360877
291,0.0
340,432.2742097618965
341,7.696603542222276e-11
342,4589371.777197313
418,938.1890729331176
443,938.1890729331176
689,15.50393883132862
11,1876.3781458662352
2,3, 1, 3, 0, 7, 0.00,60.00,Saturday
7,-10.5875
8,2.375
204,20.0
205,0.0035303693046053655
206,1330107.7048229047
291,0.0
340,428.1172607438883
341,6.70527366078195e-11
342,4630774.428396373
418,938.1854431449893
443,938.1854431449893
689,15.46268262953079
11,1876.3708862899787
2,3, 1, 3, 0, 8, 0.00,60.00,Saturday
7,-11.625
8,2.0
204,20.0
205,0.0034797268424919467
206,1365281.9485656344
291,0.0
340,424.5241764110016
341,5.848411608758988e-11
342,4787490.160352006
418,938.182300010279
443,938.182300010279
689,15.307051615156889
11,1876.364600020558
2,3, 1, 3, 0, 9, 0.00,60.00,Saturday
7,-11.624999999999998
8,2.0
204,20.0
205,0.003494027245961823
206,1380062.9686066248
291,0.0
340,421.3974573351071
341,5.102766175683952e-11
342,4787779.335566214
418,938.1795694293564
443,938.1795694293564
689,15.307044585150722
11,1876.3591388587129
2,3, 1, 3, 0,10, 0.00,60.00,Saturday
7,-11.15
8,3.25
204,20.0
205,0.00370489515314704
206,1385356.2717930109
291,0.0
340,418.649175593104
341,4.447368719120988e-11
342,4716410.237480302
418,938.177182183838
443,938.177182183838
689,15.378289047377663
11,1876.354364367676
2,3, 1, 3, 0,11, 0.00,60.00,Saturday
7,-11.0
8,5.25
204,20.0
205,0.004244541994438191
206,1467440.569920506
291,0.0
340,416.14132258471864
341,3.849307589503474e-11
342,4693918.420935286
418,938.1750231303544
443,938.1750231303544
689,15.400787770669165
11,1876.3500462607087
2,3, 1, 3, 0,12, 0.00,60.00,Saturday
7,-10.5625
8,4.125
204,20.0
205,0.003925421686337371
206,1454554.2083252962
291,0.0
340,413.9126411130197
341,3.3178219904412115e-11
342,4628220.102747491
418,938.1730644911577
443,938.1730644911577
689,15.46641330038336
11,1876.3461289823153
2,3, 1, 3, 0,13, 0.00,60.00,Saturday
7,-9.4875
8,3.625
204,20.0
205,0.003757410430868856
206,1438544.5636731118
291,0.0
340,412.08734774052067
341,2.8825345104374102e-11
342,4465845.766484218
418,938.1714528464564
443,938.1714528464564
689,15.627659576554954
11,1876.3429056929128
2,3, 1, 3, 0,14, 0.00,60.00,Saturday
7,-8.375
8,3.375
204,20.0
205,0.003675888468488741
206,1427317.3084409698
291,0.0
340,410.4993392468605
341,2.5038336255031196e-11
342,4298012.137612737
418,938.1700659913441
443,938.1700659913441
689,15.794530397555903
11,1876.3401319826883
2,3, 1, 3, 0,15, 0.00,60.00,Saturday
7,-7.375
8,3.625
204,20.0
205,0.003717367459625318
206,1436559.4530734865
291,0.0
340,409.1323610369908
341,2.1778430153582256e-11
342,4147557.3535223748
418,938.168870750632
443,938.168870750632
689,15.944525204540078
11,1876.337741501264
2,3, 1, 3, 0,16, 0.00,60.00,Saturday
7,-6.375
8,4.625
204,20.0
205,0.00396607999977658
206,1472771.1608228765
291,0.0
340,407.9202656014916
341,1.888788129392005e-11
342,3996378.3339214334
418,938.1678189193016
443,938.1678189193016
689,16.09452227728567
11,1876.3356378386031
2,3, 1, 3, 0,17, 0.00,60.00,Saturday
7,-6.625
8,3.75
204,20.0
205,0.00374362084086404
206,1476166.2307371865
291,0.0
340,406.85978788618837
341,1.6358903326600386e-11
342,4034285.839446188
418,938.1668883087347
443,938.1668883087347
689,16.057021328680122
11,1876.3337766174693
2,3, 1, 3, 0,18, 0.00,60.00,Saturday
7,-6.6875
8,3.625
204,20.0
205,0.0037164535664828014
206,1493850.8087728336
291,0.0
340,405.96741397921284
341,1.4230811508369884e-11
342,4044807.6770940362
418,938.1661048346657
443,938.1661048346657
689,16.047640570334107
11,1876.3322096693314
2,3, 1, 3, 0,19, 0.00,60.00,Saturday
7,-6.8125
8,4.0
204,20.0
205,0.0038034565377521178
206,1525055.899903535
291,0.0
340,405.1837057705786
341,1.2361860597056235e-11
342,4063338.577627425
418,938.1654225547062
443,938.1654225547062
689,16.02888761515927
11,1876.3308451094124
2,3, 1, 3, 0,20, 0.00,60.00,Saturday
7,-6.375
8,4.625
204,20.0
205,0.00396607999977658
206,1553681.7286739997
291,0.0
340,404.49549589525515
341,1.072064967251803e-11
342,3996378.333921434
418,938.1648233430487
443,938.1648233430487
689,16.094511599270493
11,1876.3296466860975
2,3, 1, 3, 0,21, 0.00,60.00,Saturday
7,-6.0625
8,5.625
204,20.0
205,0.004296036789921962
206,1602499.31621495
291,0.0
340,403.8818326674661
341,9.257214128293157e-12
342,3949521.0574729373
418,938.1642910746649
443,938.1642910746649
689,16.14138579709082
11,1876.3285821493298
2,3, 1, 3, 0,22, 0.00,60.00,Saturday
7,-6.0375
8,6.0
204,20.0
205,0.0044284816116423684
206,1633699.6645387383
291,0.0
340,403.33748279816575
341,7.959073859894803e-12
342,3945516.540153802
418,938.1638166536248
443,938.1638166536248
689,16.145137918646803
11,1876.3276333072497
2,3, 1, 3, 0,23, 0.00,60.00,Saturday
7,-6.625
8,6.0
204,20.0
205,0.004432780098303787
206,1664233.9823755242
291,0.0
340,402.86729670458686
341,6.837795916905354e-12
342,4034285.839446187
418,938.1634046812827
443,938.1634046812827
689,16.05701490369892
11,1876.3268093625654
2,3, 1, 3, 0,24, 0.00,60.00,Saturday
7,-7.0625
8,5.375
204,20.0
205,0.004222868416909336
206,1664336.815530228
291,0.0
340,402.46685558013155
341,5.882842534724323e-12
342,4100819.5405659927
418,938.163052132653
443,938.163052132653
689,15.9913892166532
11,1876.326104265306
2,4, 1, 4, 0, 1, 0.00,60.00,Sunday
7,-7.6625
8,4.375
204,20.0
205,0.003917656468884627
206,1653751.1521968984
291,0.0
340,402.1333020002598
341,5.0873994601140294e-12
342,4190975.6604589336
418,938.1627575344744
443,938.1627575344744
689,15.901387520724755
11,1876.3255150689488
2,4, 1, 4, 0, 2, 0.00,60.00,Sunday
7,-8.0
8,4.0
204,20.0
205,0.003815600530982964
206,1660955.1744818005
291,0.0
340,401.8516588365357
341,4.415749933277061e-12
342,4241590.191249482
418,938.162510348894
443,938.162510348894
689,15.850758876667593
11,1876.325020697788
2,4, 1, 4, 0, 3, 0.00,60.00,Sunday
7,-7.75
8,4.625
204,20.0
205,0.003991444038407015
206,1691466.781208307
291,0.0
340,401.60638412544574
341,3.8308302019743895e-12
342,4203962.971295492
418,938.1622967656458
443,938.1622967656458
689,15.888254577692724
11,1876.3245935312916
2,4, 1, 4, 0, 4, 0.00,60.00,Sunday
7,-7.225
8,3.75
204,20.0
205,0.0037554630481978772
206,1666031.1601927518
291,0.0
340,401.3923434174517
341,3.320395869583383e-12
342,4124282.1608678643
418,938.1621089763631
443,938.1621089763631
689,15.967002696492774
11,1876.3242179527263
2,4, 1, 4, 0, 5, 0.00,60.00,Sunday
7,-7.0
8,4.25
204,19.999999999999996
205,0.0038779484829456336
206,1690806.5089143747
291,0.0
340,401.2108567001254
341,2.8875947811149983e-12
342,4089407.2028592895
418,938.1619502797469
443,938.1619502797469
689,16.000750845369843
11,1876.3239005594937
2,4, 1, 4, 0, 6, 0.00,60.00,Sunday
7,-6.812499999999999
8,4.375
204,20.0
205,0.0039007989679626714
206,1703327.075172314
291,0.0
340,401.04914021244866
341,2.5019408174479862e-12
342,4061430.0009107757
418,938.1618095026649
443,938.1618095026649
689,16.02887440214469
11,1876.3236190053299
2,4, 1, 4, 0, 7, 0.00,60.00,Sunday
7,-6.8875
8,4.0
204,20.0
205,0.0037988694335892837
206,1704965.320338999
291,0.0
340,400.91094234885645
341,2.1723729754165937e-12
342,4073687.513880063
418,938.1616881533652
443,938.1616881533652
689,16.017620905996175
11,1876.3233763067303
2,4, 1, 4, 0, 8, 0.00,60.00,Sunday
7,-7.0
8,4.625
204,20.0
205,0.0039754441044861505
206,1741622.768047846
291,0.0
340,400.7905999367647
341,1.8853859842494157e-12
342,4090876.7844975377
418,938.1615833891975
443,938.1615833891975
689,16.00074305542909
11,1876.323166778395
2,4, 1, 4, 0, 9, 0.00,60.00,Sunday
7,-6.6875
8,5.0
204,20.0
205,0.004078864816969795
206,1760865.019445241
291,0.0
340,400.68397282374696
341,1.6311066008638766e-12
342,4043707.1901983586
418,938.1614905447852
443,938.1614905447852
689,16.047616984179598
11,1876.3229810895705
2,4, 1, 4, 0,10, 0.00,60.00,Sunday
7,-6.1875
8,6.25
204,20.0
205,0.004530741855268007
206,1809070.518951782
291,0.0
340,400.5898107083915
341,1.406553164564477e-12
342,3967354.86174969
418,938.1614089130437
443,938.1614089130437
689,16.122618647390034
11,1876.3228178260874
2,4, 1, 4, 0,11, 0.00,60.00,Sunday
7,-6.625
8,5.75
204,20.0
205,0.004348644432109784
206,1803300.245354604
291,0.0
340,400.5059257905513
341,1.2065083112432605e-12
342,4034626.562321949
418,938.1613354551732
443,938.1613354551732
689,16.056995986780787
11,1876.3226709103465
2,4, 1, 4, 0,12, 0.00,60.00,Sunday
7,-6.562500000000001
8,3.75
204,20.0
205,0.003736242267780936
206,1741343.7340012256
291,0.0
340,400.43787770749975
341,1.0442304054725646e-12
342,4026284.927319764
418,938.1612747829236
443,938.1612747829236
689,16.066366954138218
11,1876.322549565847
2,4, 1, 4, 0,13, 0.00,60.00,Sunday
7,-6.1125
8,4.25
204,20.0
205,0.0038593733298268665
206,1761566.5293189147
291,0.0
340,400.38099000596424
341,9.085672588375836e-13
342,3957944.683300335
418,938.1612250514033
443,938.1612250514033
689,16.133861250616366
11,1876.3224501028067
2,4, 1, 4, 0,14, 0.00,60.00,Sunday
7,-6.0
8,4.375
204,20.0
205,0.0038882113965026245
206,1777104.2303774185
291,0.0
340,400.33029351902485
341,7.876686330202316e-13
342,3940692.8583410643
418,938.1611809172738
443,938.1611809172738
689,16.150734033257343
11,1876.3223618345476
2,4, 1, 4, 0,15, 0.00,60.00,Sunday
7,-5.375
8,4.625
204,20.0
205,0.003950583591634015
206,1788615.2656785185
291,0.0
340,400.2866590088748
341,6.836110812280296e-13
342,3846008.1925877123
418,938.1611427473325
443,938.1611427473325
689,16.24448159737888
11,1876.322285494665
2,4, 1, 4, 0,16, 0.00,60.00,Sunday
7,-5.0
8,4.375
204,20.0
205,0.003873426407307155
206,1793152.8002526225
291,0.0
340,400.248462092065
341,5.925208493095038e-13
342,3789850.220132456
418,938.1611093574202
443,938.1611093574202
689,16.30072903840859
11,1876.3222187148403
2,4, 1, 4, 0,17, 0.00,60.00,Sunday
7,-5.0
8,3.375
204,20.0
205,0.0036270776234877894
206,1784887.2232464342
291,0.0
340,400.2161293608548
341,5.154152546572261e-13
342,3791025.42082794
418,938.1610808821479
443,938.1610808821479
689,16.300723390772973
11,1876.3221617642957
2,4, 1, 4, 0,18, 0.00,60.00,Sunday
7,-5.125
8,3.0
204,20.0
205,0.0035416606485943474
206,1791223.5180875703
291,0.0
340,400.18856924832875
341,4.4969117922499497e-13
342,3810545.7447001897
418,938.1610567452985
443,938.1610567452985
689,16.281966753476684
11,1876.322113490597
2,4, 1, 4, 0,19, 0.00,60.00,Sunday
7,-5.075
8,2.375
204,20.0
205,0.003440654653696431
206,1791246.3464031485
291,0.0
340,400.1646811690965
341,3.927239981252757e-13
342,3802924.0703517743
418,938.1610358452501
443,938.1610358452501
689,16.289461548395483
11,1876.3220716905003
2,4, 1, 4, 0,20, 0.00,60.00,Sunday
7,-5.0
8,2.0
204,20.0
205,0.0033903086037415896
206,1795894.4122201575
291,0.0
340,400.14409746034704
341,3.4363692617453627e-13
342,3791491.2111362154
418,938.1610178388094
443,938.1610178388094
689,16.300706793992283
11,1876.3220356776187
2,4, 1, 4, 0,21, 0.00,60.00,Sunday
7,-4.5
8,3.25
204,20.0
205,0.0035927280036406307
206,1820840.1373629742
291,0.0
340,400.1259680287076
341,3.004027002074464e-13
342,3716786.27871521
418,938.161002104464
443,938.161002104464
689,16.37570071195725
11,1876.322004208928
2,4, 1, 4, 0,22, 0.00,60.00,Sunday
7,-4.075
8,2.75
204,20.0
205,0.0034954937325911975
206,1813158.465697508
291,0.0
340,400.1098324950301
341,2.619234294299074e-13
342,3652678.907910942
418,938.1609880228516
443,938.1609880228516
689,16.4394480050154
11,1876.3219760457032
2,4, 1, 4, 0,23, 0.00,60.00,Sunday
7,-4.0
8,2.0
204,20.000000000000004
205,0.0033769595194707716
206,1810250.5408297307
291,0.0
340,400.0960984923228
341,2.2917121809303964e-13
342,3641102.7687201137
418,938.1609759683402
443,938.1609759683402
689,16.450695472786165
11,1876.3219519366803
2,4, 1, 4, 0,24, 0.00,60.00,Sunday
7,-3.875
8,1.375
204,20.0
205,0.0033068729070297627
206,1810676.7292405944
291,0.0
340,400.0841732431139
341,2.0073243803289991e-13
342,3623140.4263792
418,938.1609655532757
443,938.1609655532757
689,16.469440223253677
11,1876.3219311065513
2,5, 1, 5, 0, 1, 0.00,60.00,Monday
7,-4.55
8,3.5
204,20.0
205,0.003681170149472399
206,1874319.1221918815
291,0.0
340,400.0736451343661
341,1.7562549360877356e-13
342,3725209.068021623
418,938.1609564411493
443,938.1609564411493
689,16.368187704697206
11,1876.3219128822986
2,5, 1, 5, 0, 2, 0.00,60.00,Monday
7,-5.0
8,3.75
204,20.0
205,0.003718850118585771
206,1896218.8658228589
291,0.0
340,400.0640203063948
341,1.526726511989575e-13
342,3791247.3257940104
418,938.1609480880516
443,938.1609480880516
689,16.30069358711837
11,1876.321896176103
2,5, 1, 5, 0, 3, 0.00,60.00,Monday
7,-5.0
8,3.0
204,20.0
205,0.003549563476159792
206,1887578.2545406057
291,0.0
340,400.05585277366725
341,1.3319509875524255e-13
342,3790249.251059027
418,938.1609409013703
443,938.1609409013703
689,16.300696687716826
11,1876.3218818027406
2,5, 1, 5, 0, 4, 0.00,60.00,Monday
7,-5.625
8,3.625
204,20.0
205,0.0036915673760460387
206,1926060.091765404
291,0.0
340,400.04873263382854
341,1.1621532019296693e-13
342,3885025.9120646846
418,938.160934707213
443,938.160934707213
689,16.206946808046524
11,1876.321869414426
2,5, 1, 5, 0, 5, 0.00,60.00,Monday
7,-6.0
8,3.375
204,20.0
205,0.003640952270052472
206,1939219.6246808209
291,0.0
340,400.04245002871687
341,1.0123285552115899e-13
342,3941877.7685983377
418,938.1609292229682
443,938.1609292229682
689,16.150697438241306
11,1876.3218584459364
2,5, 1, 5, 0, 6, 0.00,60.00,Monday
7,-6.749999999999999
8,3.0
204,20.0
205,0.003576073678217608