Program Version,EnergyPlus, Version 25.2.0-cf7368216c, YMD=2026.04.09 20:03
1,5,Environment Title[],Latitude[deg],Longitude[deg],Time Zone[],Elevation[m]
2,8,Day of Simulation[],Month[],Day of Month[],DST Indicator[1=yes 0=no],Hour[],StartMinute[],EndMinute[],DayType
3,5,Cumulative Day of Simulation[],Month[],Day of Month[],DST Indicator[1=yes 0=no],DayType  ! When Daily Report Variables Requested
4,2,Cumulative Days of Simulation[],Month[]  ! When Monthly Report Variables Requested
5,1,Cumulative Days of Simulation[] ! When Run Period Report Variables Requested
6,1,Calendar Year of Simulation[] ! When Annual Report Variables Requested
7,1,Environment,Site Outdoor Air Drybulb Temperature [C] !Hourly
8,1,Environment,Site Wind Speed [m/s] !Hourly
204,1,MAINZONE,Zone Mean Air Temperature [C] !Hourly
205,1,MAINZONE,Zone Air System Sensible Heating Energy [J] !Hourly
290,1,MAINZONE,Zone Air System Sensible Cooling Energy [J] !Hourly
339,1,MAINZONE,Zone Air CO2 Concentration [ppm] !Hourly
340,1,LAB_HX,Heat Exchanger Sensible Heating Energy [J] !Hourly
416,1,SUPPLY_FAN,Fan Electricity Energy [J] !Hourly
441,1,EXHAUST_FAN,Fan Electricity Energy [J] !Hourly
627,1,ERV_SA_OUTLET,System Node Temperature [C] !Hourly
655,1,MAINZONE,Zone Mechanical Ventilation Air Changes per Hour [ach] !Hourly
11,1,Electricity:Facility [J] !Hourly
End of Data Dictionary
1,ANNUAL,  50.39,  30.54,   2.00, 178.60
2,1, 1, 1, 0, 1, 0.00,60.00,Thursday
7,-7.05
8,2.375
204,16.0
205,5115669.390263483
290,0.0
339,403.9249331475486
340,3494020.6780409766
416,18744.036887998802
441,18744.036887998802
627,12.64728250876233
655,0.7540322665834278
11,5753227.102945339
2,1, 1, 1, 0, 2, 0.00,60.00,Thursday
7,-9.625
8,1.375
204,16.0
205,5297880.936341834
290,0.0
339,401.7385123783474
340,3882123.2932290602
416,18744.036887998802
441,18744.036887998802
627,12.261089273533134
655,0.754393015220417
11,6004208.164908482
2,1, 1, 1, 0, 3, 0.00,60.00,Thursday
7,-9.0625
8,1.625
204,16.0
205,5366482.585241051
290,0.0
339,400.77201378971495
340,3796870.290802332
416,18744.036887998802
441,18744.036887998802
627,12.34551017478784
655,0.7492988009328485
11,6057375.385949333
2,1, 1, 1, 0, 4, 0.00,60.00,Thursday
7,-10.0625
8,0.75
204,16.0
205,5416497.879295369
290,0.0
339,400.3441375982191
340,3947105.2831054414
416,18744.036887998802
441,18744.036887998802
627,12.19555484416756
655,0.7509638993331131
11,6133895.423016114
2,1, 1, 1, 0, 5, 0.00,60.00,Thursday
7,-11.0
8,0.0
204,16.0
205,5455135.671629816
290,0.0
339,400.15292919625915
340,4088746.6803841875
416,18744.036887998802
441,18744.036887998802
627,12.054969417120821
655,0.7535932891551156
11,6197358.505532032
2,1, 1, 1, 0, 6, 0.00,60.00,Thursday
7,-9.625
8,1.25
204,16.0
205,5460948.343781349
290,0.0
339,400.0679807866423
340,3881484.3798060385
416,18744.036887998802
441,18744.036887998802
627,12.261247953570948
655,0.7493809828311456
11,6166080.536004671
2,1, 1, 1, 0, 7, 0.00,60.00,Thursday
7,-9.55
8,1.375
204,16.0
205,5479691.283111878
290,0.0
339,400.03029667197825
340,3869902.850624791
416,18744.036887998802
441,18744.036887998802
627,12.272524403652849
655,0.7507550483493151
11,6182617.313111
2,1, 1, 1, 0, 8, 0.00,60.00,Thursday
7,-10.625
8,1.0
204,20.607366958882878
205,14685529.852313034
290,0.0
339,400.01663537278176
340,4703252.1774520315
416,18744.036887998802
441,18744.036887998802
627,15.880387730297137
655,0.7644183513951053
11,15566673.404826302
2,1, 1, 1, 0, 9, 0.00,60.00,Thursday
7,-8.75
8,1.625
204,20.99999999997398
205,10191395.902821844
290,0.0
339,400.0077892849909
340,4507110.23803982
416,18744.036887998802
441,18744.036887998802
627,16.642561934582897
655,0.7627855381032821
11,11006426.56072741
2,1, 1, 1, 0,10, 0.00,60.00,Thursday
7,-9.025
8,1.375
204,21.0
205,2811663.3878903505
290,0.0
339,559.2503284945828
340,4548401.181030698
416,18744.036887998802
441,18744.036887998802
627,16.601282197770814
655,0.7644863615706892
11,10413139.03008217
2,1, 1, 1, 0,11, 0.00,60.00,Thursday
7,-8.125
8,1.625
204,21.0
205,160472.5051096321
290,127068.157691264
339,755.9063725965091
340,4412985.598278085
416,18744.036887998802
441,18744.036887998802
627,16.736152028464524
655,0.7671664784692837
11,9141872.233613726
2,1, 1, 1, 0,12, 0.00,60.00,Thursday
7,-5.000000000000001
8,2.625
204,21.030486575867414
205,0.0
290,636164.8112728009
339,838.6944098206552
340,3942226.762999767
416,18744.036887998802
441,18744.036887998802
627,17.21166821774381
655,0.7656466298991242
11,8393644.186971763
2,1, 1, 1, 0,13, 0.00,60.00,Thursday
7,-3.925
8,3.625
204,21.196241632314877
205,0.0
290,662559.8146533987
339,874.2276017311274
340,3802339.1057358403
416,18744.036887998802
441,18744.036887998802
627,17.49884250601665
655,0.7676526327507143
11,8346288.073775997
2,1, 1, 1, 0,14, 0.00,60.00,Thursday
7,-2.75
8,4.0
204,21.003477886754425
205,4814158.961391833
290,0.0
339,745.1745755876399
340,3610784.2804433554
416,18744.036887998802
441,18744.036887998802
627,17.597991512444725
655,0.7685425738289441
11,5681121.4529700335
2,1, 1, 1, 0,15, 0.00,60.00,Thursday
7,-0.8750000000000001
8,4.625
204,21.00000002578077
205,903734.5399969498
290,198413.0269256248
339,718.096141069362
340,3319336.489050467
416,18744.036887998802
441,18744.036887998802
627,17.823368003794094
655,0.7678461761154611
11,8091117.156519515
2,1, 1, 1, 0,16, 0.00,60.00,Thursday
7,-0.075
8,4.375
204,21.0860612671077
205,0.0
290,557222.750154115
339,822.3433035139927
340,3206713.978755879
416,18744.036887998802
441,18744.036887998802
627,17.981226940974196
655,0.7690405962127642
11,8346288.073775997
2,1, 1, 1, 0,17, 0.00,60.00,Thursday
7,-1.25
8,4.625
204,21.244540809673808
205,0.0
290,591871.5836153964
339,864.5595645904582
340,3407788.45620147
416,18744.036887998802
441,18744.036887998802
627,17.949878431401654
655,0.7705821726656686
11,8346288.073775997
2,1, 1, 1, 0,18, 0.00,60.00,Thursday
7,-2.0625
8,3.75
204,21.383617401510413
205,0.0
290,619798.5792159794
339,882.4726481733919
340,3549031.9573840136
416,18744.036887998802
441,18744.036887998802
627,17.93593370113387
655,0.770805987400453
11,8346288.073775997
2,1, 1, 1, 0,19, 0.00,60.00,Thursday
7,-3.9125
8,3.0
204,21.00205072329986
205,4904068.094760484
290,0.0
339,735.1250018732721
340,3786217.4355035825
416,18744.036887998802
441,18744.036887998802
627,17.41694052317071
655,0.7694772878359349
11,5586091.103228942
2,1, 1, 1, 0,20, 0.00,60.00,Thursday
7,-5.625
8,2.375
204,17.13424645083985
205,124945.44352023819
290,468540.1790622123
339,578.7789299893809
340,3496967.6735906135
416,18744.036887998802
441,18744.036887998802
627,14.088807744290486
655,0.7571656002487023
11,240782.36670748985
2,1, 1, 1, 0,21, 0.00,60.00,Thursday
7,-5.0
8,2.625
204,16.00001321979261
205,1521105.5495307297
290,0.0
339,503.76610464045314
340,3184011.007878839
416,18744.036887998802
441,18744.036887998802
627,12.954711440581171
655,0.7552374651673263
11,2105064.096988132
2,1, 1, 1, 0,22, 0.00,60.00,Thursday
7,-4.15
8,3.0
204,16.000000000166473
205,3233193.2617292465
290,0.0
339,445.23879258387734
340,3055873.720634882
416,18744.036887998802
441,18744.036887998802
627,13.08211700207979
655,0.7550063463781576
11,3793859.448932118
2,1, 1, 1, 0,23, 0.00,60.00,Thursday
7,-4.0
8,2.375
204,16.0
205,4244443.1061686855
290,0.0
339,420.0132431960053
340,3033169.8832927872
416,18744.036887998802
441,18744.036887998802
627,13.104678442801037
655,0.7550780330748237
11,4800703.822930336
2,1, 1, 1, 0,24, 0.00,60.00,Thursday
7,-3.875
8,2.625
204,16.0
205,4780553.705068843
290,0.0
339,408.8636018726487
340,3014712.018997758
416,18744.036887998802
441,18744.036887998802
627,13.123477917990611
655,0.7537939583984102
11,5333144.92166054
2,2, 1, 2, 0, 1, 0.00,60.00,Friday
7,-3.925
8,3.625
204,16.0
205,5066552.412365207
290,0.0
339,403.9209651089536
340,3022772.3839951367
416,18744.036887998802
441,18744.036887998802
627,13.116018266974661
655,0.7538601840883453
11,5620230.876014212
2,2, 1, 2, 0, 2, 0.00,60.00,Friday
7,-4.0
8,3.375
204,16.0
205,5196677.489633996
290,0.0
339,401.72943101079187
340,3034252.307266762
416,18744.036887998802
441,18744.036887998802
627,13.104803590571679
655,0.7541577640115713
11,5752154.939403311
2,2, 1, 2, 0, 3, 0.00,60.00,Friday
7,-4.0
8,3.625
204,16.0
205,5268878.512821832
290,0.0
339,400.7640037127733
340,3034252.307266762
416,18744.036887998802
441,18744.036887998802
627,13.104833896937004
655,0.7539431654916622
11,5824174.433256801
2,2, 1, 2, 0, 4, 0.00,60.00,Friday
7,-4.0
8,3.375
204,16.0
205,5300851.347951002
290,0.0
339,400.3371042427675
340,3035025.9129167693
416,18744.036887998802
441,18744.036887998802
627,13.104855453862594
655,0.7537673546177694
11,5855994.959780694
2,2, 1, 2, 0, 5, 0.00,60.00,Friday
7,-4.0
8,4.875
204,16.0
205,5359373.751610213
290,0.0
339,400.14871867270017
340,3034039.7557646707
416,18744.036887998802
441,18744.036887998802
627,13.104880173820217
655,0.7536227880820459
11,5914399.076687549
2,2, 1, 2, 0, 6, 0.00,60.00,Friday
7,-4.375
8,5.375
204,16.0
205,5396351.602590408
290,0.0
339,400.0650774629531
340,3088871.901335061
416,18744.036887998802
441,18744.036887998802
627,13.048664678174786
655,0.7513966124891096
11,5961283.359595796
2,2, 1, 2, 0, 7, 0.00,60.00,Friday
7,-6.1
8,5.0
204,16.000000000000004
205,5435743.043171992
290,0.0
339,400.02857488205166
340,3348422.6501500127
416,18744.036887998802
441,18744.036887998802
627,12.789952712472433
655,0.7521113750644071
11,6046723.126282995
2,2, 1, 2, 0, 8, 0.00,60.00,Friday
7,-7.625
8,3.75
204,20.61664594366703
205,14619380.05692915
290,0.0
339,400.01555941912426
340,4252102.73520354
416,18744.036887998802
441,18744.036887998802
627,16.339123308687306
655,0.7645878209591108
11,15420817.126638196
2,2, 1, 2, 0, 9, 0.00,60.00,Friday
7,-7.562500000000001
8,4.25
204,20.999999999978993
205,10156455.091198208
290,0.0
339,400.00724356197134
340,4327520.807907191
416,18744.036887998802
441,18744.036887998802
627,16.82063025765651
655,0.7629187001850423
11,10940175.081039092
2,2, 1, 2, 0,10, 0.00,60.00,Friday
7,-8.3625
8,4.375
204,21.0
205,2844965.738584271
290,0.0
339,558.7800099043005
340,4448423.618617737
416,18744.036887998802
441,18744.036887998802
627,16.700609154692774
655,0.7646604359410671
11,10429110.35880236
2,2, 1, 2, 0,11, 0.00,60.00,Friday
7,-9.0
8,4.625
204,21.0
205,189500.90119027856
290,86168.39895161259
339,753.674341187042
340,4543895.220366593
416,18744.036887998802
441,18744.036887998802
627,16.6048693557465
655,0.7674880589719564
11,9235615.992432931
2,2, 1, 2, 0,12, 0.00,60.00,Friday
7,-8.0
8,3.75
204,21.01702232606013
205,0.0
290,662763.686242512
339,835.4015219796856
340,4393136.814094877
416,18744.036887998802
441,18744.036887998802
627,16.75714196203664
655,0.7641693342321076
11,8446194.573131828
2,2, 1, 2, 0,13, 0.00,60.00,Friday
7,-7.775
8,3.625
204,21.167975648393565
205,0.0
290,765595.7877083034
339,872.7133090256586
340,4377487.899433325
416,18744.036887998802
441,18744.036887998802
627,16.896035006742327
655,0.7667964120236077
11,8346288.073775997
2,2, 1, 2, 0,14, 0.00,60.00,Friday
7,-7.375
8,3.375
204,21.003123474476986
205,4730333.79920121
290,0.0
339,744.4998560418334
340,4306196.234392541
416,18744.036887998802
441,18744.036887998802
627,16.898318376785358
655,0.7687742240802559
11,5722636.069096496
2,2, 1, 2, 0,15, 0.00,60.00,Friday
7,-6.4375
8,3.0
204,21.000000023521608
205,874723.389504421
290,292645.2358939212
339,718.821788951353
340,4155018.025866226
416,18744.036887998802
441,18744.036887998802
627,16.989044767028883
655,0.7648606458151124
11,8117291.350650426
2,2, 1, 2, 0,16, 0.00,60.00,Friday
7,-6.6625
8,2.375
204,21.057070944567922
205,0.0
290,731723.5042410134
339,825.1838628343676
340,4194309.00770728
416,18744.036887998802
441,18744.036887998802
627,16.977918387836038
655,0.7671166490722556
11,8346288.073775997
2,2, 1, 2, 0,17, 0.00,60.00,Friday
7,-8.25
8,2.0
204,21.19437451151364
205,0.0
290,778314.2828566297
339,868.0378282926409
340,4454497.766514419
416,18744.036887998802
441,18744.036887998802
627,16.85876774986221
655,0.7704056118548921
11,8346288.073775997
2,2, 1, 2, 0,18, 0.00,60.00,Friday
7,-8.375
8,2.0
204,21.321071071187937
205,0.0
290,786944.4716480998
339,886.8861628343169
340,4490390.44230435
416,18744.036887998802
441,18744.036887998802
627,16.940064167249332
655,0.7671878730126908
11,8346288.073775997
2,2, 1, 2, 0,19, 0.00,60.00,Friday
7,-9.25
8,2.0
204,21.0017306066307
205,4865272.075190809
290,0.0
339,738.8717087538721
340,4587075.326614911
416,18744.036887998802
441,18744.036887998802
627,16.608693338308342
655,0.7672664121920016
11,5691834.335931741
2,2, 1, 2, 0,20, 0.00,60.00,Friday
7,-10.0
8,2.0
204,17.073923364950883
205,101734.26422198294
290,482670.59058260114
339,581.1337417461018
340,4144725.784823328
416,18744.036887998802
441,18744.036887998802
627,13.37384734158584
655,0.7568902753625952
11,320354.6738200413
2,2, 1, 2, 0,21, 0.00,60.00,Friday
7,-9.3125
8,2.0
204,16.00000923724334
205,1470187.8443685165
290,0.0
339,505.24599449098287
340,3833238.014273692
416,18744.036887998802
441,18744.036887998802
627,12.307890609369792
655,0.7517683763259932
11,2169561.445456591
2,2, 1, 2, 0,22, 0.00,60.00,Friday
7,-9.5875
8,1.375
204,16.00000000011822
205,3214196.031718923
290,0.0
339,446.13809686078423
340,3874624.5029234947
416,18744.036887998802
441,18744.036887998802
627,12.266606627850866
655,0.7528181752958708
11,3920397.7847022107
2,2, 1, 2, 0,23, 0.00,60.00,Friday
7,-10.0
8,1.0
204,16.0
205,4265804.973412523
290,0.0
339,420.48092295524987
340,3936734.2617638772
416,18744.036887998802
441,18744.036887998802
627,12.204800564333658
655,0.7547417004439393
11,4982564.272342774
2,2, 1, 2, 0,24, 0.00,60.00,Friday
7,-9.25
8,1.0
204,16.0
205,4817804.3383280095
290,0.0
339,409.091439527943
340,3823654.690936405
416,18744.036887998802
441,18744.036887998802
627,12.317357066804297
655,0.7506469911423549
11,5513987.405279598
2,3, 1, 3, 0, 1, 0.00,60.00,Saturday
7,-9.55
8,1.0
204,16.0
205,5121514.754812772
290,0.0
339,404.0501941650281
340,3868887.057338649
416,18744.036887998802
441,18744.036887998802
627,12.272406737557539
655,0.7517716137650752
11,5825369.8512393
2,3, 1, 3, 0, 2, 0.00,60.00,Saturday
7,-10.0
8,1.0
204,16.0
205,5294991.06217204
290,0.0
339,401.79872449744107
340,3936734.2617638744
416,18744.036887998802
441,18744.036887998802
627,12.204951243957227
655,0.7536741839805101
11,6010576.902754586
2,3, 1, 3, 0, 3, 0.00,60.00,Saturday
7,-9.6875
8,1.625
204,16.0
205,5400088.363460502
290,0.0
339,400.79898226046635
340,3889402.5056770532
416,18744.036887998802
441,18744.036887998802
627,12.251864273244937
655,0.750122197369034
11,6107007.413851658
2,3, 1, 3, 0, 4, 0.00,60.00,Saturday
7,-10.4375
8,2.625
204,16.0
205,5501225.1575886365
290,0.0
339,400.35534940661546
340,4002470.866307267
416,18744.036887998802
441,18744.036887998802
627,12.139399401952566
655,0.7512335914508086
11,6227972.8674245365
2,3, 1, 3, 0, 5, 0.00,60.00,Saturday
7,-11.0
8,2.375
204,16.0
205,5562736.628341592
290,0.0
339,400.15730706296154
340,4087346.394875011
416,18744.036887998802
441,18744.036887998802
627,12.055056078431196
655,0.7530101583246496
11,6304302.81761481
2,3, 1, 3, 0, 6, 0.00,60.00,Saturday
7,-10.3125
8,2.625
204,16.0
205,5601334.329962128
290,0.0
339,400.06974478145514
340,3983763.6060043336
416,18744.036887998802
441,18744.036887998802
627,12.15820549784784
655,0.749710278617743
11,6324288.99273102
2,3, 1, 3, 0, 7, 0.00,60.00,Saturday
7,-10.5875
8,2.375
204,16.0
205,5643068.6861723615
290,0.0
339,400.03097880772674
340,4025196.7225878416
416,18744.036887998802
441,18744.036887998802
627,12.116977623911508
655,0.7508044845514621
11,6373212.8394844085
2,3, 1, 3, 0, 8, 0.00,60.00,Saturday
7,-11.625
8,2.0
204,16.0
205,5699164.543361683
290,0.0
339,400.01374196067616
340,4181957.799622191
416,18744.036887998802
441,18744.036887998802
627,11.961373160813299
655,0.7525801564123163
11,6456909.586383573
2,3, 1, 3, 0, 9, 0.00,60.00,Saturday
7,-11.624999999999998
8,2.0
204,16.0
205,5719219.010146049
290,0.0
339,400.006099135756
340,4182210.3160147937
416,18744.036887998802
441,18744.036887998802
627,11.961389257411405
655,0.7493433200936014
11,6476824.444187895
2,3, 1, 3, 0,10, 0.00,60.00,Saturday
7,-11.15
8,3.25
204,16.0
205,5612999.196265584
290,0.0
339,400.0027113819512
340,4110771.608417107
416,18744.036887998802
441,18744.036887998802
627,12.032651108070214
655,0.7504623044217158
11,6357789.8445922835
2,3, 1, 3, 0,11, 0.00,60.00,Saturday
7,-11.0
8,5.25
204,16.0
205,5606821.580847999
290,0.0
339,400.00119404358907
340,4088251.5279113795
416,18744.036887998802
441,18744.036887998802
627,12.055161119985264
655,0.7522494977980382
11,6347514.462255341
2,3, 1, 3, 0,12, 0.00,60.00,Saturday
7,-10.5625
8,4.125
204,16.0
205,5643365.956329028
290,0.0
339,400.0005230633127
340,4022481.4754718025
416,18744.036887998802
441,18744.036887998802
627,12.120793147621718
655,0.7489065677960813
11,6372290.628689498
2,3, 1, 3, 0,13, 0.00,60.00,Saturday
7,-9.4875
8,3.625
204,16.0
205,5704744.947867552
290,0.0
339,400.00023177842235
340,3860050.612999667
416,18744.036887998802
441,18744.036887998802
627,12.282047276290868
655,0.7501009413317705
11,6404885.907286737
2,3, 1, 3, 0,14, 0.00,60.00,Saturday
7,-8.375
8,3.375
204,16.0
205,5739561.37483469
290,0.0
339,400.000102415894
340,3692124.571003201
416,18744.036887998802
441,18744.036887998802
627,12.448923463719417
655,0.7519594454662049
11,6409934.385272939
2,3, 1, 3, 0,15, 0.00,60.00,Saturday
7,-7.375
8,3.625
204,16.0
205,5781689.837338289
290,0.0
339,400.00004529876855
340,3541049.306256086
416,18744.036887998802
441,18744.036887998802
627,12.596273290526966
655,0.7518972403335163
11,6425797.054456448
2,3, 1, 3, 0,16, 0.00,60.00,Saturday
7,-6.375
8,4.625
204,16.0
205,5844771.287560821
290,0.0
339,400.0000199798663
340,3389645.246615446
416,18744.036887998802
441,18744.036887998802
627,12.745285369231972
655,0.7518551716919846
11,6462335.755857674
2,3, 1, 3, 0,17, 0.00,60.00,Saturday
7,-6.625
8,3.75
204,16.0
205,5878926.741804959
290,0.0
339,400.0000087943105
340,3427614.808584543
416,18744.036887998802
441,18744.036887998802
627,12.708153858083952
655,0.7518878227355024
11,6503125.539802945
2,3, 1, 3, 0,18, 0.00,60.00,Saturday
7,-6.6875
8,3.625
204,16.0
205,5899991.663856647
290,0.0
339,400.000003891701
340,3437191.0729760425
416,18744.036887998802
441,18744.036887998802
627,12.694356264989702
655,0.7499961263339681
11,6526668.0932359435
2,3, 1, 3, 0,19, 0.00,60.00,Saturday
7,-6.8125
8,4.0
204,16.0
205,5915932.331066996
290,0.0
339,400.00000172181996
340,3456335.400861511
416,18744.036887998802
441,18744.036887998802
627,12.678695705916219
655,0.7508085432724558
11,6545435.438653173
2,3, 1, 3, 0,20, 0.00,60.00,Saturday
7,-6.375
8,4.625
204,16.0
205,5921798.457863524
290,0.0
339,400.0000007592298
340,3390134.090223116
416,18744.036887998802
441,18744.036887998802
627,12.748014787321635
655,0.7519456134538418
11,6538960.060089981
2,3, 1, 3, 0,21, 0.00,60.00,Saturday
7,-6.0625
8,5.625
204,16.0
205,5942661.528307529
290,0.0
339,400.000000333311
340,3342818.5884621292
416,18744.036887998802
441,18744.036887998802
627,12.792741544053344
655,0.750383805564691
11,6551856.088558141
2,3, 1, 3, 0,22, 0.00,60.00,Saturday
7,-6.0375
8,6.0
204,16.0
205,5950450.134386093
290,0.0
339,400.0000001457813
340,3339109.731620059
416,18744.036887998802
441,18744.036887998802
627,12.797962271199165
655,0.7510185632106013
11,6558728.811485464
2,3, 1, 3, 0,23, 0.00,60.00,Saturday
7,-6.625
8,6.0
204,16.0
205,5962523.650076904
290,0.0
339,400.0000000636185
340,3428161.769481628
416,18744.036887998802
441,18744.036887998802
627,12.711207894026188
655,0.7519881701453204
11,6586271.658378472
2,3, 1, 3, 0,24, 0.00,60.00,Saturday
7,-7.0625
8,5.375
204,16.0
205,5951754.752018116
290,0.0
339,400.0000000277944
340,3494463.8411566415
416,18744.036887998802
441,18744.036887998802
627,12.644483688709814
655,0.7506553189618307
11,6587399.00865582
2,4, 1, 4, 0, 1, 0.00,60.00,Sunday
7,-7.6625
8,4.375
204,16.0
205,5933867.576880369
290,0.0
339,400.0000000122203
340,3584956.9709505495
416,18744.036887998802
441,18744.036887998802
627,12.555760707478044
655,0.7512366946921392
11,6585331.138541669
2,4, 1, 4, 0, 2, 0.00,60.00,Sunday
7,-8.0
8,4.0
204,16.0
205,5932503.591551397
290,0.0
339,400.00000000538836
340,3635648.7353566997
416,18744.036887998802
441,18744.036887998802
627,12.505155142884869
655,0.7520556111668599
11,6592972.637706008
2,4, 1, 4, 0, 3, 0.00,60.00,Sunday
7,-7.75
8,4.625
204,16.0
205,5951918.140207267
290,0.0
339,400.0000000023749
340,3597986.262786731
416,18744.036887998802
441,18744.036887998802
627,12.542656940146573
655,0.7511655871882007
11,6605683.526483312
2,4, 1, 4, 0, 4, 0.00,60.00,Sunday
7,-7.225
8,3.75
204,16.0
205,5925464.955999316
290,0.0
339,400.000000001046
340,3518327.14662427
416,18744.036887998802
441,18744.036887998802
627,12.62140918843904
655,0.7514642788965875
11,6565181.279589895
2,4, 1, 4, 0, 5, 0.00,60.00,Sunday
7,-7.0
8,4.25
204,16.0
205,5944853.830640326
290,0.0
339,400.0000000004622
340,3483569.0987319876
416,18744.036887998802
441,18744.036887998802
627,12.65516471821405
655,0.7519428506555493
11,6578536.678712681
2,4, 1, 4, 0, 6, 0.00,60.00,Sunday
7,-6.812499999999999
8,4.375
204,16.0
205,5957102.823240338
290,0.0
339,400.0000000002033
340,3455528.856610084
416,18744.036887998802
441,18744.036887998802
627,12.683292185082134
655,0.7521095493712516
11,6585744.994167222
2,4, 1, 4, 0, 7, 0.00,60.00,Sunday
7,-6.8875
8,4.0
204,16.0
205,5961431.660890682
290,0.0
339,400.00000000008987
340,3467406.2048095907
416,18744.036887998802
441,18744.036887998802
627,12.67065432707645
655,0.7520290605405896
11,6592318.075698094
2,4, 1, 4, 0, 8, 0.00,60.00,Sunday
7,-7.0
8,4.625
204,16.0
205,5997218.648165066
290,0.0
339,400.00000000003985
340,3484496.739579473
416,18744.036887998802
441,18744.036887998802
627,12.65334428000343
655,0.7519222469766933
11,6631198.330123657
2,4, 1, 4, 0, 9, 0.00,60.00,Sunday
7,-6.6875
8,5.0
204,16.0
205,6016258.703531313
290,0.0
339,400.00000000001756
340,3437202.9214944695
416,18744.036887998802
441,18744.036887998802
627,12.699671070654263
655,0.7527256265238131
11,6641989.861899247
2,4, 1, 4, 0,10, 0.00,60.00,Sunday
7,-6.1875
8,6.25
204,16.0
205,6038878.4158382565
290,0.0
339,400.00000000000773
340,3361300.098331453
416,18744.036887998802
441,18744.036887998802
627,12.77668439487633
655,0.7523769513664422
11,6650891.667484368
2,4, 1, 4, 0,11, 0.00,60.00,Sunday
7,-6.625
8,5.75
204,16.0
205,6002785.950000168
290,0.0
339,400.0000000000035
340,3427774.357387071
416,18744.036887998802
441,18744.036887998802
627,12.70741474609215
655,0.7519178955066506
11,6627143.9360477775
2,4, 1, 4, 0,12, 0.00,60.00,Sunday
7,-6.562500000000001
8,3.75
204,16.0
205,5926622.669995161
290,0.0
339,400.00000000000153
340,3418459.1462543295
416,18744.036887998802
441,18744.036887998802
627,12.712282461367941
655,0.7530897567609465
11,6550139.255698615
2,4, 1, 4, 0,13, 0.00,60.00,Sunday
7,-6.1125
8,4.25
204,16.0
205,5933409.045218276
290,0.0
339,400.00000000000057
340,3350496.5769597325
416,18744.036887998802
441,18744.036887998802
627,12.78178169327424
655,0.7526470308430174
11,6544574.735095026
2,4, 1, 4, 0,14, 0.00,60.00,Sunday
7,-6.0
8,4.375
204,16.0
205,5943831.26248254
290,0.0
339,400.0000000000003
340,3333608.3947697934
416,18744.036887998802
441,18744.036887998802
627,12.800520216690861
655,0.751985181878053
11,6551683.649475714
2,4, 1, 4, 0,15, 0.00,60.00,Sunday
7,-5.375
8,4.625
204,16.0
205,5954624.0897852415
290,0.0
339,400.0000000000003
340,3239020.66009756
416,18744.036887998802
441,18744.036887998802
627,12.894849056097453
655,0.7519655247104422
11,6545680.6816862505
2,4, 1, 4, 0,16, 0.00,60.00,Sunday
7,-5.0
8,4.375
204,16.0
205,5967247.786602685
290,0.0
339,400.0000000000002
340,3182316.1021483517
416,18744.036887998802
441,18744.036887998802
627,12.948638469863539
655,0.7519673513666612
11,6548735.691166009
2,4, 1, 4, 0,17, 0.00,60.00,Sunday
7,-5.0
8,3.375
204,16.0
205,5971274.531258326
290,0.0
339,400.00000000000017
340,3182521.4254879663
416,18744.036887998802
441,18744.036887998802
627,12.944247314905054
655,0.7520153184006128
11,6553580.447111554
2,4, 1, 4, 0,18, 0.00,60.00,Sunday
7,-5.125
8,3.0
204,16.0
205,5969634.6685253875
290,0.0
339,400.00000000000017
340,3201768.4780061375
416,18744.036887998802
441,18744.036887998802
627,12.924460670373918
655,0.7538782518538132
11,6555520.368572118
2,4, 1, 4, 0,19, 0.00,60.00,Sunday
7,-5.075
8,2.375
204,16.0
205,5948749.012876669
290,0.0
339,400.0000000000001
340,3194490.639041124
416,18744.036887998802
441,18744.036887998802
627,12.933844948922836
655,0.753217094167122
11,6533012.805766296
2,4, 1, 4, 0,20, 0.00,60.00,Sunday
7,-5.0
8,2.0
204,16.0
205,5923291.0122343395
290,0.0
339,400.00000000000017
340,3183368.402764815
416,18744.036887998802
441,18744.036887998802
627,12.94677695951695
655,0.7521863580672485
11,6505290.779688369
2,4, 1, 4, 0,21, 0.00,60.00,Sunday
7,-4.5
8,3.25
204,16.0
205,5911959.759403368
290,0.0
339,400.0000000000002
340,3107800.3680289933
416,18744.036887998802
441,18744.036887998802
627,13.017965810743785
655,0.753766117780599
11,6481302.468244847
2,4, 1, 4, 0,22, 0.00,60.00,Sunday
7,-4.075
8,2.75
204,16.0
205,5874513.400629833
290,0.0
339,400.0
340,3043700.534790034
416,18744.036887998802
441,18744.036887998802
627,13.082085230739139
655,0.7531891364735361
11,6432476.668931994
2,4, 1, 4, 0,23, 0.00,60.00,Sunday
7,-4.0
8,2.0
204,16.0
205,5845001.688368973
290,0.0
339,400.00000000000017
340,3032613.7416218473
416,18744.036887998802
441,18744.036887998802
627,13.095884994283365
655,0.7523073148245805
11,6400552.059059616
2,4, 1, 4, 0,24, 0.00,60.00,Sunday
7,-3.875
8,1.375
204,16.0
205,5822749.892461184
290,0.0
339,400.00000000000017
340,3013907.3809433538
416,18744.036887998802
441,18744.036887998802
627,13.111399689842294
655,0.7532153717281636
11,6375574.9342742665
2,5, 1, 5, 0, 1, 0.00,60.00,Monday
7,-4.55
8,3.5
204,16.0
205,5856628.323347813
290,0.0
339,400.00000000000017
340,3116594.6409623027
416,18744.036887998802
441,18744.036887998802
627,13.013276684983689
655,0.7529793665282143
11,6427014.969448993
2,5, 1, 5, 0, 2, 0.00,60.00,Monday
7,-5.0
8,3.75
204,16.0
205,5857916.96187369
290,0.0
339,400.00000000000006
340,3184525.1762351645
416,18744.036887998802
441,18744.036887998802
627,12.954363410693263
655,0.752512846390005
11,6438844.963328996
2,5, 1, 5, 0, 3, 0.00,60.00,Monday
7,-5.0
8,3.0
204,16.0
205,5832293.745880481
290,0.0
339,399.99999999999994
340,3183809.3708895817
416,18744.036887998802
441,18744.036887998802
627,12.955057296621325
655,0.7524841036629976
11,6413080.47644172
2,5, 1, 5, 0, 4, 0.00,60.00,Monday
7,-5.625
8,3.625
204,16.000000000000004
205,5848862.0875084475
290,0.0
339,400.0000000000001
340,3278582.8446092224
416,18744.036887998802
441,18744.036887998802
627,12.861311618324427
655,0.7524959370460862
11,6446347.8234296385
2,5, 1, 5, 0, 5, 0.00,60.00,Monday
7,-6.0
8,3.375
204,16.0
205,5845417.76106254
290,0.0
339,400.00000000000034
340,3335435.0349678244
416,18744.036887998802
441,18744.036887998802
627,12.805065365561491
655,0.7524952136257012
11,6452915.05939634
2,5, 1, 5, 0, 6, 0.00,60.00,Monday
7,-6.749999999999999
8,3.0
204,16.0
205,5846775.151460541
290,0.0
339,400.00000000000034
340,3448782.343585344
416,18744.036887998802
441,18744.036887998802
627,12.692570433334529
655,0.7517954522471053
11,6474319.931129061
2,5, 1, 5, 0, 7, 0.00,60.00,Monday
7,-7.7
8,3.0
204,16.0
205,5858548.784565773
290,0.0
339,400.00000000000017
340,3592306.304560539
416,18744.036887998802
441,18744.036887998802
627,12.550077102931732
655,0.7521053857706981
11,6511483.799618663
2,5, 1, 5, 0, 8, 0.00,60.00,Monday
7,-8.625
8,2.375
204,20.576887609076664
205,15063145.614498679
290,0.0
339,400.00000000000017
340,4397068.6041166
416,18744.036887998802
441,18744.036887998802
627,16.14353984008812
655,0.7639481630854719
11,15891468.191600155
2,5, 1, 5, 0, 9, 0.00,60.00,Monday
7,-9.125
8,2.0
204,20.999999999656595
205,10585507.855426747
290,0.0
339,400.0000000000003
340,4564048.118893818
416,18744.036887998802
441,18744.036887998802
627,16.586347080254747
655,0.7638251007726501
11,11410255.438457089
2,5, 1, 5, 0,10, 0.00,60.00,Monday
7,-9.7
8,2.0
204,20.999999999999996
205,3347901.4449183843
290,0.0
339,559.157787933008
340,4650594.359422037
416,18744.036887998802
441,18744.036887998802
627,16.500063992629425
655,0.7650626788698351
11,10967156.383500395
2,5, 1, 5, 0,11, 0.00,60.00,Monday
7,-10.0
8,2.0
204,21.0
205,611528.0880189063
290,0.0
339,755.598033174402
340,4695307.955808308
416,18744.036887998802
441,18744.036887998802
627,16.45493571306502
655,0.7670861233712496
11,9770021.883791445
2,5, 1, 5, 0,12, 0.00,60.00,Monday
7,-9.8125
8,2.625
204,21.0
205,2147.1188453688737
290,201617.84949707816
339,838.3363079054658
340,4666245.895226279
416,18744.036887998802
441,18744.036887998802
627,16.482950119550793
655,0.7651215797491864
11,8955037.784853557
2,5, 1, 5, 0,13, 0.00,60.00,Monday
7,-9.8875
8,2.375
204,21.0
205,0.0
290,592700.6900276572
339,874.4895025855009
340,4677009.766884927
416,18744.036887998802
441,18744.036887998802
627,16.471608008037663
655,0.7669031814475723
11,8564694.427897066
2,5, 1, 5, 0,14, 0.00,60.00,Monday
7,-10.0
8,2.0
204,21.0
205,5340238.70831015
290,0.0
339,746.7486816980662
340,4693798.542872312
416,18744.036887998802
441,18744.036887998802
627,16.4546941863263
655,0.7686166236993841
11,6411105.095692456
2,5, 1, 5, 0,15, 0.00,60.00,Monday
7,-10.0
8,2.0
204,21.0
205,1126165.1404235556
290,20806.07067021208
339,719.9802330592729
340,4693798.542872312
416,18744.036887998802
441,18744.036887998802
627,16.45471164862631
655,0.7686981357108329
11,8735982.68290297
2,5, 1, 5, 0,16, 0.00,60.00,Monday
7,-10.0
8,2.0
204,21.0
205,0.0
290,378656.15133422567
339,824.9762999115682
340,4693266.02586106
416,18744.036887998802
441,18744.036887998802
627,16.45463969872788
655,0.7692597829592781
11,8782654.757936353
2,5, 1, 5, 0,17, 0.00,60.00,Monday
7,-11.25
8,2.0
204,21.0
205,0.0
290,608607.4660189613
339,867.7744914195328
340,4881579.357185726
416,18744.036887998802
441,18744.036887998802