Program Version,EnergyPlus, Version 25.2.0-cf7368216c, YMD=2026.04.09 20:37
1,5,Environment Title[],Latitude[deg],Longitude[deg],Time Zone[],Elevation[m]
2,8,Day of Simulation[],Month[],Day of Month[],DST Indicator[1=yes 0=no],Hour[],StartMinute[],EndMinute[],DayType
3,5,Cumulative Day of Simulation[],Month[],Day of Month[],DST Indicator[1=yes 0=no],DayType  ! When Daily Report Variables Requested
4,2,Cumulative Days of Simulation[],Month[]  ! When Monthly Report Variables Requested
5,1,Cumulative Days of Simulation[] ! When Run Period Report Variables Requested
6,1,Calendar Year of Simulation[] ! When Annual Report Variables Requested
7,1,Environment,Site Outdoor Air Drybulb Temperature [C] !Hourly
8,1,Environment,Site Wind Speed [m/s] !Hourly
204,1,MAINZONE,Zone Mean Air Temperature [C] !Hourly
205,1,MAINZONE,Zone Air System Sensible Heating Energy [J] !Hourly
290,1,MAINZONE,Zone Air System Sensible Cooling Energy [J] !Hourly
339,1,MAINZONE,Zone Air CO2 Concentration [ppm] !Hourly
340,1,LAB_HX,Heat Exchanger Sensible Heating Energy [J] !Hourly
416,1,SUPPLY_FAN,Fan Electricity Energy [J] !Hourly
441,1,EXHAUST_FAN,Fan Electricity Energy [J] !Hourly
687,1,ERV_SA_OUTLET,System Node Temperature [C] !Hourly
715,1,MAINZONE,Zone Mechanical Ventilation Air Changes per Hour [ach] !Hourly
11,1,Electricity:Facility [J] !Hourly
End of Data Dictionary
1,ANNUAL,  50.39,  30.54,   2.00, 178.60
2,1, 1, 1, 0, 1, 0.00,60.00,Thursday
7,-7.05
8,2.375
204,16.0
205,5115816.889184505
290,0.0
339,406.3562384391612
340,3648193.1912043355
416,18744.036887998802
441,18744.036887998802
687,13.510617959166058
715,0.7635166012169087
11,37488.073775997604
2,1, 1, 1, 0, 2, 0.00,60.00,Thursday
7,-9.625
8,1.375
204,16.0
205,5297921.000646427
290,0.0
339,403.1797898296775
340,4071374.0429424336
416,18744.036887998802
441,18744.036887998802
687,13.321680304692556
715,0.7642527309182768
11,37488.073775997604
2,1, 1, 1, 0, 3, 0.00,60.00,Thursday
7,-9.0625
8,1.625
204,16.0
205,5366477.555719695
290,0.0
339,401.59744657839894
340,3980940.4757626886
416,18744.036887998802
441,18744.036887998802
687,13.377003868017113
715,0.7593293584090426
11,37488.073775997604
2,1, 1, 1, 0, 4, 0.00,60.00,Thursday
7,-10.0625
8,0.75
204,16.0
205,5416464.921110656
290,0.0
339,400.80512653544906
340,4134443.637678832
416,18744.036887998802
441,18744.036887998802
687,13.245690483662205
715,0.7613433118783806
11,37488.073775997604
2,1, 1, 1, 0, 5, 0.00,60.00,Thursday
7,-11.0
8,0.0
204,16.0
205,5455084.926929025
290,0.0
339,400.4054093270286
340,4294753.208572768
416,18744.036887998802
441,18744.036887998802
687,13.209930107756389
715,0.764342186527336
11,37488.073775997604
2,1, 1, 1, 0, 6, 0.00,60.00,Thursday
7,-9.625
8,1.25
204,16.0
205,5460893.846458513
290,0.0
339,400.20422572577104
340,4071911.4756057216
416,18744.036887998802
441,18744.036887998802
687,13.328466404870113
715,0.7602201364700697
11,37488.073775997604
2,1, 1, 1, 0, 7, 0.00,60.00,Thursday
7,-9.55
8,1.375
204,16.0
205,5479630.988271911
290,0.0
339,400.1030095404029
340,4051145.497053705
416,18744.036887998802
441,18744.036887998802
687,13.28823516806138
715,0.7618262458656366
11,37488.073775997604
2,1, 1, 1, 0, 8, 0.00,60.00,Thursday
7,-10.625
8,1.0
204,21.035690890977637
205,14105458.822677493
290,48218.9425675515
339,400.0590468058984
340,4784286.06979681
416,18744.036887998802
441,18744.036887998802
687,16.333473494506293
715,0.7778539196844205
11,37488.073775997604
2,1, 1, 1, 0, 9, 0.00,60.00,Thursday
7,-8.75
8,1.625
204,21.0
205,10176437.952454533
290,0.0
339,400.0336907467953
340,4507577.676649218
416,18744.036887998802
441,18744.036887998802
687,16.643318106762184
715,0.7769086960220055
11,37488.073775997604
2,1, 1, 1, 0,10, 0.00,60.00,Thursday
7,-9.025
8,1.375
204,21.0
205,2811623.169674185
290,0.0
339,545.2195385435161
340,4548401.1810307
416,18744.036887998802
441,18744.036887998802
687,16.599459442274657
715,0.7780037380284782
11,6816288.073775997
2,1, 1, 1, 0,11, 0.00,60.00,Thursday
7,-8.125
8,1.625
204,21.0
205,160458.05425112502
290,127083.69426179436
339,738.2807012530455
340,4412985.598278085
416,18744.036887998802
441,18744.036887998802
687,16.734520097972847
715,0.7791582379158241
11,8346288.073775997
2,1, 1, 1, 0,12, 0.00,60.00,Thursday
7,-5.000000000000001
8,2.625
204,21.028282040864504
205,0.0
290,641206.2476116471
339,826.9988728649744
340,3942104.3327492406
416,18744.036887998802
441,18744.036887998802
687,17.209563436401695
715,0.7759848917932967
11,8346288.073775997
2,1, 1, 1, 0,13, 0.00,60.00,Thursday
7,-3.925
8,3.625
204,21.189708449137264
205,0.0
290,671697.6468977765
339,865.9907201855467
340,3801402.114761763
416,18744.036887998802
441,18744.036887998802
687,17.492373562332077
715,0.7765009219238693
11,8346288.073775997
2,1, 1, 1, 0,14, 0.00,60.00,Thursday
7,-2.75
8,4.0
204,21.006506314718987
205,4824330.477503368
290,0.0
339,753.3485622928174
340,3610977.272349517
416,18744.036887998802
441,18744.036887998802
687,17.597943641583196
715,0.7773623894294781
11,256368.07377599765
2,1, 1, 1, 0,15, 0.00,60.00,Thursday
7,-0.8750000000000001
8,4.625
204,21.000000633876272
205,903928.1409624466
290,197853.91351606342
339,731.3988237178747
340,3319337.5140814628
416,18744.036887998802
441,18744.036887998802
687,17.822157715420296
715,0.7769218192940719
11,6816288.073775997
2,1, 1, 1, 0,16, 0.00,60.00,Thursday
7,-0.075
8,4.375
204,21.0821906447905
205,0.0
290,563897.6288226256
339,825.0185708312868
340,3206300.4697154257
416,18744.036887998802
441,18744.036887998802
687,17.977843845508787
715,0.7768298263564686
11,8346288.073775997
2,1, 1, 1, 0,17, 0.00,60.00,Thursday
7,-1.25
8,4.625
204,21.239282934714275
205,0.0
290,597957.9044880004
339,863.3842124064653
340,3407033.35379142
416,18744.036887998802
441,18744.036887998802
687,17.94473714552014
715,0.7772224833987733
11,8346288.073775997
2,1, 1, 1, 0,18, 0.00,60.00,Thursday
7,-2.0625
8,3.75
204,21.37744753668813
205,0.0
290,625190.0411150779
339,879.8497033828469
340,3548122.42821963
416,18744.036887998802
441,18744.036887998802
687,17.930060599435098
715,0.77645412426104
11,8346288.073775997
2,1, 1, 1, 0,19, 0.00,60.00,Thursday
7,-3.9125
8,3.0
204,21.003481951086673
205,4907304.257855528
290,0.0
339,745.2268310499624
340,3786337.5252997167
416,18744.036887998802
441,18744.036887998802
687,17.416834322554042
715,0.7754693598160982
11,37488.073775997604
2,1, 1, 1, 0,20, 0.00,60.00,Thursday
7,-5.625
8,2.375
204,17.131490724972288
205,123668.46753867697
290,469924.72377022146
339,594.1055829849721
340,3496819.509295526
416,18744.036887998802
441,18744.036887998802
687,14.087088028559613
715,0.7613196355216165
11,37488.073775997604
2,1, 1, 1, 0,21, 0.00,60.00,Thursday
7,-5.0
8,2.625
204,16.000020872296496
205,1521947.25238215
290,0.0
339,513.9520419562464
340,3184019.172330781
416,18744.036887998802
441,18744.036887998802
687,12.953916534193937
715,0.7615408526724194
11,37488.073775997604
2,1, 1, 1, 0,22, 0.00,60.00,Thursday
7,-4.15
8,3.0
204,16.000000000973046
205,3234565.9389954186
290,0.0
339,453.1372328423392
340,3055873.7219321476
416,18744.036887998802
441,18744.036887998802
687,13.081205738911454
715,0.7620465967593678
11,37488.073775997604
2,1, 1, 1, 0,23, 0.00,60.00,Thursday
7,-4.0
8,2.375
204,16.000000000000057
205,4245181.83675158
290,0.0
339,425.8763706247664
340,3053011.8066136814
416,18744.036887998802
441,18744.036887998802
687,13.214835834155009
715,0.7632504884876661
11,37488.073775997604
2,1, 1, 1, 0,24, 0.00,60.00,Thursday
7,-3.875
8,2.625
204,16.0
205,4780916.6411606055
290,0.0
339,412.78169563012784
340,3105374.960403966
416,18744.036887998802
441,18744.036887998802
687,13.630371830014898
715,0.7628439800967458
11,37488.073775997604
2,2, 1, 2, 0, 1, 0.00,60.00,Friday
7,-3.925
8,3.625
204,16.0
205,5066719.628393215
290,0.0
339,406.34516179744844
340,3136490.5116976807
416,18744.036887998802
441,18744.036887998802
687,13.751958399218559
715,0.7633105285060986
11,37488.073775997604
2,2, 1, 2, 0, 2, 0.00,60.00,Friday
7,-4.0
8,3.375
204,16.0
205,5196747.112287231
290,0.0
339,403.154273638894
340,3150490.291001324
416,18744.036887998802
441,18744.036887998802
687,13.754803393298806
715,0.7638784226090127
11,37488.073775997604
2,2, 1, 2, 0, 3, 0.00,60.00,Friday
7,-4.0
8,3.625
204,16.0
205,5268898.38271458
290,0.0
339,401.5725275453584
340,3150490.273250199
416,18744.036887998802
441,18744.036887998802
687,13.754803293851458
715,0.7638784226090127
11,37488.073775997604
2,2, 1, 2, 0, 4, 0.00,60.00,Friday
7,-4.0
8,3.375
204,16.0
205,5300845.582608386
290,0.0
339,400.783884349328
340,3154772.6369536715
416,18744.036887998802
441,18744.036887998802
687,13.774287385763563
715,0.7638784226090127
11,37488.073775997604
2,2, 1, 2, 0, 5, 0.00,60.00,Friday
7,-4.0
8,4.875
204,16.0
205,5359350.70339331
290,0.0
339,400.39081558914296
340,3149313.2056860835
416,18744.036887998802
441,18744.036887998802
687,13.749441817216491
715,0.7638784226090127
11,37488.073775997604
2,2, 1, 2, 0, 6, 0.00,60.00,Friday
7,-4.375
8,5.375
204,16.000000000000004
205,5396317.176244906
290,0.0
339,400.1937672536786
340,3203038.2462329515
416,18744.036887998802
441,18744.036887998802
687,13.687430311052736
715,0.7617741972176997
11,37488.073775997604
2,2, 1, 2, 0, 7, 0.00,60.00,Friday
7,-6.1
8,5.0
204,16.0
205,5435692.619376246
290,0.0
339,400.09640009880695
340,3479219.1250337064
416,18744.036887998802
441,18744.036887998802
687,13.522374612561189
715,0.7627374572932333
11,37488.073775997604
2,2, 1, 2, 0, 8, 0.00,60.00,Friday
7,-7.625
8,3.75
204,21.036508654570934
205,14022036.201437782
290,43922.49733110387
339,400.05481325230926
340,4330905.079023289
416,18744.036887998802
441,18744.036887998802
687,16.77961864427485
715,0.7776223338019053
11,37488.073775997604
2,2, 1, 2, 0, 9, 0.00,60.00,Friday
7,-7.562500000000001
8,4.25
204,21.0
205,10142701.632038755
290,0.0
339,400.03109391175684
340,4327520.807975198
416,18744.036887998802
441,18744.036887998802
687,16.81882372059092
715,0.776588229064724
11,37488.073775997604
2,2, 1, 2, 0,10, 0.00,60.00,Friday
7,-8.3625
8,4.375
204,21.0
205,2844901.7542685666
290,0.0
339,544.7840588749218
340,4448423.618617737
416,18744.036887998802
441,18744.036887998802
687,16.698845415048083
715,0.777733356197729
11,6816288.073775997
2,2, 1, 2, 0,11, 0.00,60.00,Friday
7,-9.0
8,4.625
204,21.0
205,189474.1084403795
290,86196.24532002729
339,736.1281877848285
340,4543895.220366593
416,18744.036887998802
441,18744.036887998802
687,16.603295860058925
715,0.7790378300877502
11,8346288.073775997
2,2, 1, 2, 0,12, 0.00,60.00,Friday
7,-8.0
8,3.75
204,21.014645322363368
205,0.0
290,668227.853860659
339,823.7337034667729
340,4393006.301510785
416,18744.036887998802
441,18744.036887998802
687,16.755047759471587
715,0.7740659777133904
11,8346288.073775997
2,2, 1, 2, 0,13, 0.00,60.00,Friday
7,-7.775
8,3.625
204,21.16076159757045
205,0.0
290,775675.5645084502
339,864.6215988050888
340,4376458.797850545
416,18744.036887998802
441,18744.036887998802
687,16.88909425098919
715,0.7752616202325239
11,8346288.073775997
2,2, 1, 2, 0,14, 0.00,60.00,Friday
7,-7.375
8,3.375
204,21.005846947732707
205,4740631.993107922
290,0.0
339,752.9115371966818
340,4306314.789890911
416,18744.036887998802
441,18744.036887998802
687,16.897888383695932
715,0.7773877114717924
11,256368.07377599765
2,2, 1, 2, 0,15, 0.00,60.00,Friday
7,-6.4375
8,3.0
204,21.000000583604276
205,875054.9727184768
290,291825.5419622478
339,732.2694891179206
340,4155018.963245187
416,18744.036887998802
441,18744.036887998802
687,16.987840791410605
715,0.7738706426538533
11,6816288.073775997
2,2, 1, 2, 0,16, 0.00,60.00,Friday
7,-6.6625
8,2.375
204,21.05346642626377
205,0.0
290,738164.5724141775
339,827.9249280896456
340,4193983.24111116
416,18744.036887998802
441,18744.036887998802
687,16.97501858045934
715,0.7749176856661949
11,8346288.073775997
2,2, 1, 2, 0,17, 0.00,60.00,Friday
7,-8.25
8,2.0
204,21.18789068664234
205,0.0
290,786356.2525263012
339,866.8796924193605
340,4453563.328883173
416,18744.036887998802
441,18744.036887998802
687,16.852604067368492
715,0.7771065423050992
11,8346288.073775997
2,2, 1, 2, 0,18, 0.00,60.00,Friday
7,-8.375
8,2.0
204,21.313452123334006
205,0.0
290,793872.683597615
339,884.234408006809
340,4489267.165442836
416,18744.036887998802
441,18744.036887998802
687,16.93297034672612
715,0.7728994482415903
11,8346288.073775997
2,2, 1, 2, 0,19, 0.00,60.00,Friday
7,-9.25
8,2.0
204,21.00303083981393
205,4869709.8811961105
290,0.0
339,749.2247279542163
340,4587144.665718537
416,18744.036887998802
441,18744.036887998802
687,16.608275919807983
715,0.7734912479584587
11,37488.073775997604
2,2, 1, 2, 0,20, 0.00,60.00,Friday
7,-10.0
8,2.0
204,17.070998236754942
205,102772.57760625464
290,484655.965094198
339,596.7893205499748
340,4149081.796065012
416,18744.036887998802
441,18744.036887998802
687,13.397367512377684
715,0.7612596440083531
11,37488.073775997604
2,2, 1, 2, 0,21, 0.00,60.00,Friday
7,-9.3125
8,2.0
204,16.00001563454778
205,1471501.7588767372
290,0.0
339,515.6889329008197
340,3833245.483815268
416,18744.036887998802
441,18744.036887998802
687,12.30704162894319
715,0.7584234123987679
11,37488.073775997604
2,2, 1, 2, 0,22, 0.00,60.00,Friday
7,-9.5875
8,1.375
204,16.000000000775035
205,3215739.1114076246
290,0.0
339,454.31316959432354
340,3876536.0928819044
416,18744.036887998802
441,18744.036887998802
687,12.276367347548844
715,0.7603047859925339
11,37488.073775997604
2,2, 1, 2, 0,23, 0.00,60.00,Friday
7,-10.0
8,1.0
204,16.00000000000005
205,4266632.187240376
290,0.0
339,426.58886317014577
340,4002101.407521159
416,18744.036887998802
441,18744.036887998802
687,12.570655542451995
715,0.763444615367597
11,37488.073775997604
2,2, 1, 2, 0,24, 0.00,60.00,Friday
7,-9.25
8,1.0
204,16.0
205,4818207.431361843
290,0.0
339,413.19022434954957
340,3958402.3635630673
416,18744.036887998802
441,18744.036887998802
687,13.072492954571542
715,0.760236919892318
11,37488.073775997604
2,3, 1, 3, 0, 1, 0.00,60.00,Saturday
7,-9.55
8,1.0
204,16.0
205,5121689.70969278
290,0.0
339,406.5988063146274
340,4044527.650166462
416,18744.036887998802
441,18744.036887998802
687,13.257059869585811
715,0.7619923466919293
11,37488.073775997604
2,3, 1, 3, 0, 2, 0.00,60.00,Saturday
7,-10.0
8,1.0
204,16.0
205,5295050.476903344
290,0.0
339,403.3070191082354
340,4124323.959426476
416,18744.036887998802
441,18744.036887998802
687,13.256706210678242
715,0.764279270191828
11,37488.073775997604
2,3, 1, 3, 0, 3, 0.00,60.00,Saturday
7,-9.6875
8,1.625
204,16.0
205,5400088.7629328
290,0.0
339,401.6614743751355
340,4074622.7245016955
416,18744.036887998802
441,18744.036887998802
687,13.290287518952315
715,0.7608864715344854
11,37488.073775997604
2,3, 1, 3, 0, 4, 0.00,60.00,Saturday
7,-10.4375
8,2.625
204,16.0
205,5501187.519004593
290,0.0
339,400.8365730049967
340,4192295.885980267
416,18744.036887998802
441,18744.036887998802
687,13.203776741236922
715,0.7622803634131328
11,37488.073775997604
2,3, 1, 3, 0, 5, 0.00,60.00,Saturday
7,-11.0
8,2.375
204,16.0
205,5562680.729122271
290,0.0
339,400.4205249984567
340,4288534.1392516475
416,18744.036887998802
441,18744.036887998802
687,13.183272740314708
715,0.7643421864183877
11,37488.073775997604
2,3, 1, 3, 0, 6, 0.00,60.00,Saturday
7,-10.3125
8,2.625
204,16.0
205,5601276.371836292
290,0.0
339,400.2117916360814
340,4178111.4421301987
416,18744.036887998802
441,18744.036887998802
687,13.24785784398575
715,0.7611191002101227
11,37488.073775997604
2,3, 1, 3, 0, 7, 0.00,60.00,Saturday
7,-10.5875
8,2.375
204,16.0
205,5643004.4399881335
290,0.0
339,400.1068336494691
340,4217718.38087661
416,18744.036887998802
441,18744.036887998802
687,13.196412809882947
715,0.7624061602213731
11,37488.073775997604
2,3, 1, 3, 0, 8, 0.00,60.00,Saturday
7,-11.625
8,2.0
204,16.0
205,5699089.618964627
290,0.0
339,400.053904864483
340,4393300.502852482
416,18744.036887998802
441,18744.036887998802
687,13.146546918110674
715,0.7643864312140483
11,37488.073775997604
2,3, 1, 3, 0, 9, 0.00,60.00,Saturday
7,-11.624999999999998
8,2.0
204,15.999999999999998
205,5719155.476766819
290,0.0
339,400.02723772064786
340,4397086.695432896
416,18744.036887998802
441,18744.036887998802
687,13.166320685461399
715,0.7611600967199511
11,37488.073775997604
2,3, 1, 3, 0,10, 0.00,60.00,Saturday
7,-11.15
8,3.25
204,16.0
205,5612967.044773778
290,0.0
339,400.0137599623853
340,4313897.084859369
416,18744.036887998802
441,18744.036887998802
687,13.17145979848637
715,0.7624149389369668
11,37488.073775997604
2,3, 1, 3, 0,11, 0.00,60.00,Saturday
7,-11.0
8,5.25
204,16.0
205,5606776.202262252
290,0.0
339,400.0068869335672
340,4292554.245762832
416,18744.036887998802
441,18744.036887998802
687,13.200506927450398
715,0.7643421864183877
11,37488.073775997604
2,3, 1, 3, 0,12, 0.00,60.00,Saturday
7,-10.5625
8,4.125
204,16.0
205,5643292.519360758
290,0.0
339,400.00343529211426
340,4224087.239849698
416,18744.036887998802
441,18744.036887998802
687,13.250860920220667
715,0.7609439670128605
11,37488.073775997604
2,3, 1, 3, 0,13, 0.00,60.00,Saturday
7,-9.4875
8,3.625
204,16.0
205,5704674.672992535
290,0.0
339,400.0017299438389
340,4039542.670549863
416,18744.036887998802
441,18744.036887998802
687,13.287885042207098
715,0.76221757822123
11,37488.073775997604
2,3, 1, 3, 0,14, 0.00,60.00,Saturday
7,-8.375
8,3.375
204,16.0
205,5739499.340990113
290,0.0
339,400.0008700995429
340,3858569.3351237937
416,18744.036887998802
441,18744.036887998802
687,13.381375359743767
715,0.7641642787486889
11,37488.073775997604
2,3, 1, 3, 0,15, 0.00,60.00,Saturday
7,-7.375
8,3.625
204,16.0
205,5781628.648955841
290,0.0
339,400.00043817167784
340,3694946.591819973
416,18744.036887998802
441,18744.036887998802
687,13.45809591211646
715,0.7640984442361574
11,37488.073775997604
2,3, 1, 3, 0,16, 0.00,60.00,Saturday
7,-6.375
8,4.625
204,16.0
205,5844705.862151848
290,0.0
339,400.00022028668326
340,3528393.423462549
416,18744.036887998802
441,18744.036887998802
687,13.522048730083474
715,0.7640355680195404
11,37488.073775997604
2,3, 1, 3, 0,17, 0.00,60.00,Saturday
7,-6.625
8,3.75
204,16.0
205,5878856.690427453
290,0.0
339,400.00011068647603
340,3570439.4077123804
416,18744.036887998802
441,18744.036887998802
687,13.507783959450919
715,0.7640512859674706
11,37488.073775997604
2,3, 1, 3, 0,18, 0.00,60.00,Saturday
7,-6.6875
8,3.625
204,16.0
205,5899923.076628231
290,0.0
339,400.00005588258773
340,3587201.972765947
416,18744.036887998802
441,18744.036887998802
687,13.534089143751192
715,0.7620671704302457
11,37488.073775997604
2,3, 1, 3, 0,19, 0.00,60.00,Saturday
7,-6.8125
8,4.0
204,16.0
205,5915861.678824672
290,0.0
339,400.0000282088993
340,3602940.886765438
416,18744.036887998802
441,18744.036887998802
687,13.49941992407255
715,0.7628694038407614
11,37488.073775997604
2,3, 1, 3, 0,20, 0.00,60.00,Saturday
7,-6.375
8,4.625
204,16.0
205,5921726.056245593
290,0.0
339,400.00001420787345
340,3528393.4156848006
416,18744.036887998802
441,18744.036887998802
687,13.522048686448173
715,0.764035568019545
11,37488.073775997604
2,3, 1, 3, 0,21, 0.00,60.00,Saturday
7,-6.0625
8,5.625
204,16.0
205,5942586.763021981
290,0.0
339,400.0000071301312
340,3479380.5624736072
416,18744.036887998802
441,18744.036887998802
687,13.557160213711242
715,0.7624099750370369
11,37488.073775997604
2,3, 1, 3, 0,22, 0.00,60.00,Saturday
7,-6.0375
8,6.0
204,16.0
205,5950372.122466415
290,0.0
339,400.0000035679705
340,3471451.006637722
416,18744.036887998802
441,18744.036887998802
687,13.538749533541264
715,0.7630502443583056
11,37488.073775997604
2,3, 1, 3, 0,23, 0.00,60.00,Saturday
7,-6.625
8,6.0
204,16.0
205,5962437.030985748
290,0.0
339,400.00000178285654
340,3570439.4203293333
416,18744.036887998802
441,18744.036887998802
687,13.507784030219012
715,0.7640512861852102
11,37488.073775997604
2,3, 1, 3, 0,24, 0.00,60.00,Saturday
7,-7.0625
8,5.375
204,16.0
205,5951667.264085488
290,0.0
339,400.00000089205054
340,3646192.59175596
416,18744.036887998802
441,18744.036887998802
687,13.494033851037251
715,0.7626681486905585
11,37488.073775997604
2,4, 1, 4, 0, 1, 0.00,60.00,Sunday
7,-7.6625
8,4.375
204,16.0
205,5933780.486426836
290,0.0
339,400.000000448476
340,3741320.2756308354
416,18744.036887998802
441,18744.036887998802
687,13.431472226066102
715,0.7632696634502016
11,37488.073775997604
2,4, 1, 4, 0, 2, 0.00,60.00,Sunday
7,-8.0
8,4.0
204,16.0
205,5932417.674409618
290,0.0
339,400.00000022602336
340,3797138.1610623975
416,18744.036887998802
441,18744.036887998802
687,13.409732635264058
715,0.7641377466546497
11,37488.073775997604
2,4, 1, 4, 0, 3, 0.00,60.00,Sunday
7,-7.75
8,4.625
204,16.0
205,5951832.947070627
290,0.0
339,400.0000001138775
340,3756939.3202719684
416,18744.036887998802
441,18744.036887998802
687,13.432948482839125
715,0.7632350164906205
11,37488.073775997604
2,4, 1, 4, 0, 4, 0.00,60.00,Sunday
7,-7.225
8,3.75
204,16.0
205,5925385.494989673
290,0.0
339,400.00000005734125
340,3666616.5878896564
416,18744.036887998802
441,18744.036887998802
687,13.451893204286009
715,0.7635566727139862
11,37488.073775997604
2,4, 1, 4, 0, 5, 0.00,60.00,Sunday
7,-7.0
8,4.25
204,16.0
205,5944771.647602953
290,0.0
339,400.00000002894063
340,3626249.8799247006
416,18744.036887998802
441,18744.036887998802
687,13.454326349365115
715,0.7640748640788013
11,37488.073775997604
2,4, 1, 4, 0, 6, 0.00,60.00,Sunday
7,-6.812499999999999
8,4.375
204,16.0
205,5957022.143964161
290,0.0
339,400.00000001456243
340,3596400.175443688
416,18744.036887998802
441,18744.036887998802
687,13.47221203943339
715,0.7642763319828916
11,37488.073775997604
2,4, 1, 4, 0, 7, 0.00,60.00,Sunday
7,-6.8875
8,4.0
204,16.0
205,5961354.085318335
290,0.0
339,400.00000000733996
340,3613161.0183549114
416,18744.036887998802
441,18744.036887998802
687,13.48679807159854
715,0.764195736321708
11,37488.073775997604
2,4, 1, 4, 0, 8, 0.00,60.00,Sunday
7,-7.0
8,4.625
204,16.0
205,5997139.945348607
290,0.0
339,400.0000000036999
340,3632493.4615085186
416,18744.036887998802
441,18744.036887998802
687,13.482039389769554
715,0.7640748639699293
11,37488.073775997604
2,4, 1, 4, 0, 9, 0.00,60.00,Sunday
7,-6.6875
8,5.0
204,16.0
205,6016181.895075333
290,0.0
339,400.0000000018605
340,3580068.32369207
416,18744.036887998802
441,18744.036887998802
687,13.499541925181234
715,0.7648962760108052
11,37488.073775997604
2,4, 1, 4, 0,10, 0.00,60.00,Sunday
7,-6.1875
8,6.25
204,16.0
205,6038808.859138633
290,0.0
339,400.0000000009329
340,3494957.473253848
416,18744.036887998802
441,18744.036887998802
687,13.525007216128747
715,0.7645282402688897
11,37488.073775997604
2,4, 1, 4, 0,11, 0.00,60.00,Sunday
7,-6.625
8,5.75
204,15.999999999999996
205,6002719.340370625
290,0.0
339,400.00000000046583
340,3571882.1829614346
416,18744.036887998802
441,18744.036887998802
687,13.51417509057329
715,0.764051285858621
11,37488.073775997604
2,4, 1, 4, 0,12, 0.00,60.00,Sunday
7,-6.562500000000001
8,3.75
204,16.0
205,5926559.689063139
290,0.0
339,400.0000000002341
340,3565305.275412155
416,18744.036887998802
441,18744.036887998802
687,13.534180009244423
715,0.7652264207646657
11,37488.073775997604
2,4, 1, 4, 0,13, 0.00,60.00,Sunday
7,-6.1125
8,4.25
204,16.0
205,5933342.494838285
290,0.0
339,400.0000000001182
340,3491139.4481772045
416,18744.036887998802
441,18744.036887998802
687,13.56892082411241
715,0.7647261771397194
11,37488.073775997604
2,4, 1, 4, 0,14, 0.00,60.00,Sunday
7,-6.0
8,4.375
204,16.0
205,5943763.038701221
290,0.0
339,400.0000000000596
340,3470311.783155561
416,18744.036887998802
441,18744.036887998802
687,13.565612041159152
715,0.7640119918515923
11,37488.073775997604
2,4, 1, 4, 0,15, 0.00,60.00,Sunday
7,-5.375
8,4.625
204,16.0
205,5954554.502928266
290,0.0
339,400.00000000003007
340,3365502.1594247455
416,18744.036887998802
441,18744.036887998802
687,13.602605998123586
715,0.763967791414328
11,37488.073775997604
2,4, 1, 4, 0,16, 0.00,60.00,Sunday
7,-5.0
8,4.375
204,16.0
205,5967173.102959456
290,0.0
339,400.0000000000152
340,3305481.4325391743
416,18744.036887998802
441,18744.036887998802
687,13.637675515206418
715,0.7639412728538254
11,37488.073775997604
2,4, 1, 4, 0,17, 0.00,60.00,Sunday
7,-5.0
8,3.375
204,16.0
205,5971199.455678905
290,0.0
339,400.00000000000773
340,3310749.232811819
416,18744.036887998802
441,18744.036887998802
687,13.661454754372127
715,0.7639412729626593
11,37488.073775997604
2,4, 1, 4, 0,18, 0.00,60.00,Sunday
7,-5.125
8,3.0
204,16.0
205,5969562.599395364
290,0.0
339,400.00000000000387
340,3332675.978575106
416,18744.036887998802
441,18744.036887998802
687,13.656587461467215
715,0.7658029017174485
11,37488.073775997604
2,4, 1, 4, 0,19, 0.00,60.00,Sunday
7,-5.075
8,2.375
204,16.0
205,5948680.210190053
290,0.0
339,400.00000000000205
340,3327332.2218775144
416,18744.036887998802
441,18744.036887998802
687,13.676826404793637
715,0.7650575242577464
11,37488.073775997604
2,4, 1, 4, 0,20, 0.00,60.00,Sunday
7,-5.0
8,2.0
204,16.0
205,5923224.041210768
290,0.0
339,400.00000000000097
340,3312836.8619208317
416,18744.036887998802
441,18744.036887998802
687,13.670874811860175
715,0.7639412729626593
11,37488.073775997604
2,4, 1, 4, 0,21, 0.00,60.00,Sunday
7,-4.5
8,3.25
204,16.0
205,5911892.804025807
290,0.0
339,400.0000000000005
340,3232474.287607664
416,18744.036887998802
441,18744.036887998802
687,13.714982747448284
715,0.7655214825866801
11,37488.073775997604
2,4, 1, 4, 0,22, 0.00,60.00,Sunday
7,-4.075
8,2.75
204,16.0
205,5874449.630870633
290,0.0
339,400.0000000000003
340,3165413.4675522763
416,18744.036887998802
441,18744.036887998802
687,13.762449676663156
715,0.7648495286024075
11,37488.073775997604
2,4, 1, 4, 0,23, 0.00,60.00,Sunday
7,-4.0
8,2.0
204,16.0
205,5844937.573785491
290,0.0
339,400.0000000000003
340,3150490.291001324
416,18744.036887998802
441,18744.036887998802
687,13.754803393298806
715,0.7638784227178288
11,37488.073775997604
2,4, 1, 4, 0,24, 0.00,60.00,Sunday
7,-3.875
8,1.375
204,16.0
205,5822687.765718341
290,0.0
339,400.00000000000034
340,3133316.8657161198
416,18744.036887998802
441,18744.036887998802
687,13.778727354220711
715,0.7647584869045685
11,37488.073775997604
2,5, 1, 5, 0, 1, 0.00,60.00,Monday
7,-4.55
8,3.5
204,16.0
205,5856558.10020639
290,0.0
339,400.00000000000034
340,3246803.2132419045
416,18744.036887998802
441,18744.036887998802
687,13.741178572099782
715,0.7644456158669579
11,37488.073775997604
2,5, 1, 5, 0, 2, 0.00,60.00,Monday
7,-5.0
8,3.75
204,16.0
205,5857846.422254334
290,0.0
339,400.00000000000034
340,3311743.6322879307
416,18744.036887998802
441,18744.036887998802
687,13.665939305961848
715,0.7639412729626593
11,37488.073775997604
2,5, 1, 5, 0, 3, 0.00,60.00,Monday
7,-5.0
8,3.0
204,16.0
205,5832224.628882632
290,0.0
339,400.00000000000034
340,3307270.253875941
416,18744.036887998802
441,18744.036887998802
687,13.64575276513836
715,0.7639412727449916
11,37488.073775997604
2,5, 1, 5, 0, 4, 0.00,60.00,Monday
7,-5.625
8,3.625
204,16.0
205,5848786.802762487
290,0.0
339,400.0000000000003
340,3412402.7766780257
416,18744.036887998802
441,18744.036887998802
687,13.610081020381674
715,0.7639854712453952
11,37488.073775997604
2,5, 1, 5, 0, 5, 0.00,60.00,Monday
7,-6.0
8,3.375
204,16.0
205,5845338.605545044
290,0.0
339,400.00000000000017
340,3475478.297770255
416,18744.036887998802
441,18744.036887998802
687,13.588724889332088
715,0.7640119918515923
11,37488.073775997604
2,5, 1, 5, 0, 6, 0.00,60.00,Monday
7,-6.749999999999999
8,3.0
204,16.0
205,5846693.42915405
290,0.0
339,400.0000000000003
340,3600349.5158261037
416,18744.036887998802
441,18744.036887998802
687,13.540930400633782
715,0.7633153235290793
11,37488.073775997604
2,5, 1, 5, 0, 7, 0.00,60.00,Monday
7,-7.7
8,3.0
204,16.0
205,5858465.855626033
290,0.0
339,400.00000000000017
340,3756333.611438232
416,18744.036887998802
441,18744.036887998802
687,13.468428376987259
715,0.7636724254016272
11,37488.073775997604
2,5, 1, 5, 0, 8, 0.00,60.00,Monday
7,-8.625
8,2.375
204,21.03293060270558
205,14534355.219968703
290,45011.1922360673
339,400.00000000000034
340,4483923.593775824
416,18744.036887998802
441,18744.036887998802
687,16.628876724428306
715,0.7777577242251302
11,37488.073775997604
2,5, 1, 5, 0, 9, 0.00,60.00,Monday
7,-9.125
8,2.0
204,21.0
205,10566383.287577318
290,0.0
339,400.0000000000003
340,4564048.120011461
416,18744.036887998802
441,18744.036887998802
687,16.5844364547499
715,0.778277239964267
11,37488.073775997604
2,5, 1, 5, 0,10, 0.00,60.00,Monday
7,-9.7
8,2.0
204,21.0
205,3347781.0960361
290,0.0
339,543.4587243525995
340,4650594.359422042
416,18744.036887998802
441,18744.036887998802
687,16.498202255894793
715,0.7788922844774426
11,6816288.073775997
2,5, 1, 5, 0,11, 0.00,60.00,Monday
7,-10.0
8,2.0
204,21.0
205,611437.7990806589
290,0.0
339,734.4071628785057
340,4695307.955808308
416,18744.036887998802
441,18744.036887998802
687,16.453259315747648
715,0.7794355814595846
11,8346288.073775997
2,5, 1, 5, 0,12, 0.00,60.00,Monday
7,-9.8125
8,2.625
204,21.0
205,2127.596474681036
290,201672.72974832053
339,823.5316181587699
340,4666245.895226279
416,18744.036887998802
441,18744.036887998802
687,16.4814732069698
715,0.7759334843912352
11,8346288.073775997
2,5, 1, 5, 0,13, 0.00,60.00,Monday
7,-9.8875
8,2.375
204,21.0
205,0.0
290,592759.4111637437
339,864.2885928645526
340,4677009.766884926
416,18744.036887998802
441,18744.036887998802
687,16.47032121296791
715,0.776312573059404
11,8346288.073775997
2,5, 1, 5, 0,14, 0.00,60.00,Monday
7,-10.0
8,2.0
204,21.0
205,5340176.894194439
290,0.0
339,755.4385979291428
340,4693798.542872312
416,18744.036887998802
441,18744.036887998802
687,16.4534831735877
715,0.7780700346328624
11,256368.07377599765
2,5, 1, 5, 0,15, 0.00,60.00,Monday
7,-10.0
8,2.0
204,21.0
205,1126106.0153380455
290,20824.803243946168
339,733.905523345697
340,4693798.542872312
416,18744.036887998802
441,18744.036887998802
687,16.453402593250974
715,0.7785230831656416
11,6816288.073775997
2,5, 1, 5, 0,16, 0.00,60.00,Monday
7,-10.0
8,2.0
204,21.0
205,0.0
290,378722.9579186553
339,826.297962491798
340,4693266.025861062
416,18744.036887998802
441,18744.036887998802
687,16.453456558453215
715,0.7779630200221086
11,8346288.073775997
2,5, 1, 5, 0,17, 0.00,60.00,Monday
7,-11.25
8,2.0
204,21.0
205,0.0